# OOMMF: rectangular mesh v1.0
# Segment count: 1
# Begin: Segment
# Begin: Header
# Title: No title
# Desc: Exported from OMFFile::write()
# meshunit: m
# valueunit: A/m
# valuemultiplier: 1.0
# xmin: 0
# ymin: 0
# zmin: 0
# xmax: 5e-07
# ymax: 1.25e-07
# zmax: 3e-09
# ValueRangeMaxMag: 104453
# ValueRangeMinMag: 0.28419
# meshtype: rectangular
# xbase: 1.25e-09
# ybase: 1.25e-09
# zbase: 1.5e-09
# xstepsize: 2.5e-09
# ystepsize: 2.5e-09
# zstepsize: 3e-09
# xnodes: 200
# ynodes: 50
# znodes: 1
# End: Header
# Begin: Data Text
11010.59170270684 -15654.3500966737 0.03054886542689883
-36818.29332834195 40386.25715637884 0.01349657671961891
-44198.6516386887 51420.25593635668 0.01262949583838211
-44774.14122246598 55282.33417457726 0.01381715998184877
-43306.49514127064 56890.84085225577 0.01522697901307486
-41053.42600909786 57454.61775888139 0.01643981241031048
-38476.41184167467 57393.15295133293 0.01738824946480003
-35783.81649429001 56894.14217146172 0.01807221339842799
-33083.6566856124 56061.19289949713 0.01854954646261858
-30437.28405878834 54962.00787538684 0.01884145089994495
-27881.52855837217 53646.56862793991 0.01900681638947053
-25439.04182419281 52154.82378766195 0.0190468527620289
-23123.6404434597 50520.28038405425 0.01901134104993571
-20943.30423853863 48771.8507062293 0.0188819594050884
-18901.97769638935 46934.90032953204 0.01870490248900324
-17000.71257915591 45031.89645468111 0.01844761781072656
-15238.42858459661 43082.84636718877 0.01815867849803507
-13612.43880360452 41105.60732725883 0.01779519408372126
-12118.82864294795 39116.12023144965 0.01741216576393726
-10752.7383908798 37128.58622542665 0.01695817388060862
-9508.583836626547 35155.60722472365 0.01649694721047494
-8380.234642965863 33208.29694849526 0.0159687927929764
-7361.165121318238 31296.3757374212 0.01544726106728866
-6444.584247058622 29428.24939154835 0.01486372165666211
-5623.551445352921 27611.08412726426 0.01430198023329948
-4891.079428976959 25850.87532689366 0.01368339392032281
-4240.226356512458 24152.51819584602 0.01310218559728734
-3664.176820668913 22519.87786488232 0.01246858202454133
-3156.312188102218 20955.8633143254 0.01188735715299049
-2710.269722781345 19462.50322885181 0.01125665475819999
-2319.990580116614 18041.02447970658 0.01069201432377587
-1979.756708131086 16691.93177620878 0.01007880183287873
-1684.217123811161 15415.08775008684 0.009543629339267629
-1428.404253371082 14209.7925019517 0.00895865794594352
-1207.741188875306 13074.86068141555 0.008461922402124789
-1018.041029354218 12008.6958339223 0.007912194410290918
-855.4994687949451 11009.3608323893 0.007459257931836252
-716.6817884995072 10074.64243387433 0.006948504736290521
-598.5056632689667 9202.112378010668 0.006541718564395107
-498.2206616467311 8389.180866589209 0.006071071449042728
-413.3857174935885 7633.146143416185 0.005710471006595446
-341.8452432963201 6931.235833965776 0.005279163073050622
-281.7049508458629 6280.646517004834 0.004963142918038342
-231.3076177208523 5678.572818903865 0.00456914146752789
-189.2097335611473 5122.236973728926 0.004295036543452421
-154.1590114855412 4608.909426421921 0.003935562676347125
-125.0732924357568 4135.927690542802 0.003700107020852611
-101.0208908178295 3700.710656761585 0.003372030346925845
-81.20251957151396 3300.770013702378 0.003171694189763346
-64.93479355491898 2933.717464319472 0.002871813529557572
-51.63537012802381 2597.272023840098 0.00270303599281382
-40.8095686699377 2289.262088472286 0.002428264046884023
-32.03849623800773 2007.628231820457 0.002287602451175987
-24.96851251258394 1750.422952130339 0.002035076853893178
-19.30196983632835 1515.810164182468 0.001919294038326764
-14.78909216783508 1302.062347798936 0.001686435835992877
-11.22091736613793 1107.559369147778 0.001592543285295277
-8.42314614934044 930.7830258826883 0.001377078039772737
-6.250855220724947 770.3155337130571 0.001302350798993187
-4.583918938887012 624.8329508476653 0.00110230679104101
-3.323105117109609 493.1033601693633 0.00104428010895296
-2.386716590824261 373.9797260066532 0.0008579716946415479
-1.707745485410787 266.3977798964405 0.0008144269467825082
-1.231443192231012 169.3694667154737 0.0006404311249713604
-0.9132691764709279 81.97999966351566 0.0006093776665475619
-0.7171538674724831 3.382194525896173 0.0004465061907590366
-0.6140373773819153 -67.20662220772223 0.0004261610528725673
-0.5806408453708931 -130.509812082928 0.0002734329079822041
-0.598437284885364 -187.1946004058876 0.000262201536534335
-0.652791665024627 -237.8763225419049 0.0001188156239624284
-0.7322437477654703 -283.1215488900335 0.0001152738761986216
-0.8279136693682522 -323.4522406228758 -1.941535684648009e-05
-0.9330066973284991 -359.3478809080323 -1.65370520219194e-05
-1.042407857056252 -391.2497341215368 -0.0001430421675488805
-1.152344166941302 -419.5626059900288 -0.00013487205058024
-1.260111019972675 -444.6583736495596 -0.0002535926535070166
-1.363844740375451 -466.8775728454742 -0.0002411287667224087
-1.46234195717005 -486.5328609074297 -0.000352368402676243
-1.55490772556677 -503.9100209807073 -0.000336488152495532
-1.641238025811882 -519.2709627104177 -0.000440469383455867
-1.721320338346877 -532.8546030899922 -0.0004219364316904172
-1.79536000898125 -544.8797457048435 -0.0005188135091943548
-1.863715522455869 -555.5455250204242 -0.0004982840237018758
-1.926853653989401 -565.0339353081847 -0.0005881533263480848
-1.985308486105201 -573.510155813241 -0.0005661806956040729
-2.039655986539016 -581.1248959909641 -0.0006490894826010522
-2.090488153191907 -588.0144514939379 -0.0006261281391302956
-2.138399492573501 -594.3026954716511 -0.0007020815547401286
-2.183972274049085 -600.1013264082138 -0.0006784900336867423
-2.227769785620697 -605.5113697967603 -0.0007474567153891816
-2.27032773263937 -610.6233109878644 -0.0007235000087086988
-2.312152221765408 -615.5184224792414 -0.000785416250537555
-2.353715196577377 -620.2689121162111 -0.0007612681925139703
-2.395454548369987 -624.9389560695831 -0.0008160410447392304
-2.437771281173502 -629.5846923286746 -0.0007917857971203031
-2.481031806594651 -634.2553686412725 -0.0008392949296516256
-2.525564394671435 -638.9928382627118 -0.0008149291529328912
-2.571662636306938 -643.8328071899734 -0.0008550278218380172
-2.619582669107135 -648.8044210523103 -0.0008304621626996888
-2.669544656893923 -653.9309505102773 -0.0008629774516509969
-2.721731146403918 -659.2296987786096 -0.0008380383305997725
-2.77628699803978 -664.7123405693745 -0.0008627710028964326
-2.833316983844393 -670.3847500648714 -0.000837202282931761
-2.892885929009027 -676.2475092447872 -0.0008539258313146822
-2.955013842788149 -682.295284243555 -0.0008273910103801248
-3.019675771571806 -688.5174070143274 -0.0008358504852858005
-3.086796513104047 -694.8973375453038 -0.0008079350051726401
-3.156248102454898 -701.4128340542704 -0.0008078457776958532
-3.22784441845172 -708.0355697429715 -0.0007780594446868484
-3.301337371991208 -714.7311479132134 -0.0007691057634160534
-3.376410558043339 -721.4586392431023 -0.0007368863296067384
-3.452674302263452 -728.170456111401 -0.0007187203358410759
-3.529659258199421 -734.8119538961183 -0.0006834366424386812
-3.606810189964854 -741.3210680347931 -0.0006556777102850999
-3.683479290042912 -747.6278243061873 -0.0006166343685683789
-3.758921067529671 -753.6541346224769 -0.0005788692268299094
-3.832284274942798 -759.3128332839875 -0.0005353113949791145
-3.902609821728825 -764.5078087019083 -0.000487094923860842
-3.9688215979103 -769.1324353738454 -0.0004382145829923915
-4.029728874305117 -773.070027987727 -0.0003790719312414077
-4.084021060702809 -776.1923397256318 -0.0003240151020790072
-4.130270881669058 -778.3591890298126 -0.0002534448570444268
-4.166937700482155 -779.4174449996808 -0.0001913201914402445
-4.192377230808226 -779.2004017388356 -0.0001087995068166631
-4.204854288092263 -777.5266926356494 -3.868817946400249e-05
-4.202563578010749 -774.1994868099102 5.632047486408539e-05
-4.183656260263872 -769.0052489296876 0.0001353530859314008
-4.14627836894545 -761.7128764393547 0.0002433929653822071
-4.088618289435388 -752.0723648920142 0.000332283777390563
-4.008969892718921 -739.8137410549241 0.0004538930066289505
-3.905809895792618 -724.6455672400911 0.0005535657723895085
-3.777897736320434 -706.2539237007402 0.0006892641973354968
-3.624394359404363 -684.3005952118871 0.0008006121551232659
-3.445011046839483 -658.42171487512 0.0009508856598744205
-3.240189535931765 -628.2262766905312 0.001074752447891854
-3.011317717081437 -593.2942614381346 0.001240035273086489
-2.760989018850793 -553.1747429981566 0.001377194152545807
-2.493315275892261 -507.3845794214243 0.001557849172327574
-2.214290705410387 -455.4054917467943 0.001708980415794984
-1.932232274548333 -396.6829221303603 0.001905278566764289
-1.658289480841011 -330.6229117199574 0.002070946223331284
-1.40705174981741 -256.590683125198 0.002283044023526333
-1.197251066393374 -173.9070265678224 0.002463672906342874
-1.052591490312828 -81.84672848874884 0.002691590584351214
-1.002708035944399 20.36515816453081 0.002887443250578336
-1.084286710006141 133.5556677953643 0.003131043845918756
-1.342360326517121 258.60752397741 0.003342199744599234
-1.831810656309181 396.4623847460142 0.003601170506161172
-2.619104009009133 548.1245301527697 0.003827508652267698
-3.784294733332165 714.6648057406815 0.004101346431759263
-5.423335035582877 897.2249532936447 0.004342532898304487
-7.650732277174935 1097.021359722462 0.004630535597418924
-10.60261083014352 1315.351365662337 0.004886018707586494
-14.44022249366805 1553.596621520734 0.005187285398748439
-19.35398611680719 1813.229908540295 0.005456300641479492
-25.56812135500485 2095.820815155605 0.005769743241228769
-33.34596297970463 2403.041891783056 0.00605133216988354
-42.99605803039972 2736.675661593648 0.006375702860842762
-54.87915985205358 3098.622213618643 0.006668750035060676
-69.41623783898557 3490.906620310809 0.007002690182234161
-87.09767810123238 3915.688224360768 0.00730598514587341
-108.4937998160165 4375.268414056412 0.007648103791573021
-134.2669498029133 4872.101379886633 0.0079604383308689
-165.1853348325266 5408.803437986239 0.008309431385190726
-202.1388951067372 5988.163827681168 0.008629746066747544
-246.157484160655 6613.155326789905 0.008984576203920508
-298.4317269769976 7286.946006292123 0.009312178743779844
-360.3368633922349 8012.90951501765 0.009672342935794134
-433.4600918420699 8794.636777947737 0.01000723419345467
-519.6318082492159 9635.946095209994 0.01037316044795278
-620.9612548884749 10540.89171917697 0.01071651849678731
-739.8772059657671 11513.77179221717 0.01109015901445342
-879.1741307367435 12559.13176688622 0.01144505937901425
-1042.064552613374 13681.76516737149 0.01183076405743334
-1232.237944232782 14886.70658301257 0.01220324359510668
-1453.926768215086 16179.21819944914 0.01260904503257677
-1711.979685586175 17564.76395339291 0.01300964217616232
-2011.941796295162 19048.96868921236 0.01344909714639973
-2360.141210580116 20637.5583057244 0.0138950322277485
-2763.780080722919 22336.27301717796 0.01438977395127037
-3231.026902365395 24150.74624352908 0.01490790302076649
-3771.105008159884 26086.3416702483 0.01549101299257689
-4394.368211604731 28147.93176407753 0.01612162489873772
-5112.351050768806 30339.60863973813 0.01684185543451772
-5937.773171102848 32664.30480629422 0.0176433597483212
-6884.469053540539 35123.30840173714 0.0185704440420571
-7967.199930570883 37715.64824725457 0.01962576188488305
-9201.286758670531 40437.3291756865 0.0208590618394548
-10601.97682711184 43280.39754761101 0.02228927507570615
-12183.42282862934 46231.83113336722 0.02398237777223354
-13957.10571101431 49272.25833627357 0.02599490780456482
-15929.47453601616 52374.54992721883 0.02845373311147032
-18098.50025919025 55502.3613758205 0.03154547802442677
-20448.74501371167 58608.72483785162 0.03565418380402547
-22944.39986410339 61634.6143899234 0.04152275269982372
-25519.29668921907 64506.11642618339 0.0507696275682464
-28060.25870334505 67120.90917355799 0.06714522724872887
-30358.1313711398 69257.84321897244 0.1006889992868687
-31747.40744784055 69758.75659674333 0.1857808265913766
-24417.99012191942 51367.09605669477 0.5244289478204789
48812.88379249686 -59648.70279392499 0.01908495251184234
2359.661897816954 -9450.343838447197 -0.0128281154109362
-9902.967590470984 4411.012573754158 -0.01624588274282039
-13786.01655837727 9812.593519163087 -0.01512481680911886
-14890.69406870512 12367.92396557315 -0.01328790278367314
-14886.52648393719 13712.99136546393 -0.01156944963441511
-14386.37340946292 14444.33016263625 -0.01019649226148205
-13653.25299285144 14819.77429219943 -0.009124576870314448
-12813.78234287818 14966.9451786301 -0.008355130639027626
-11934.21325324061 14956.51798728668 -0.007767146186513043
-11051.30025400977 14831.48044055637 -0.007378077837380346
-10186.21063355615 14620.06840104479 -0.007066591456185775
-9351.34977624191 14341.99571414442 -0.006889043198571725
-8553.954230094167 14011.6923025067 -0.006723678562155249
-7798.095984464227 13640.1113659192 -0.006661741715737902
-7085.855379918045 13235.81314633701 -0.006572156836697557
-6418.030721361906 12805.65318054649 -0.006575876811786541
-5794.580963836023 12355.25183264813 -0.006525032310569343
-5214.903044796115 11889.3194736307 -0.006567676021151291
-4678.009140012098 11411.89563328843 -0.006533911212197532
-4182.638085850409 10926.51901658692 -0.006598626568105111
-3727.327243093995 10436.35301566062 -0.00656637974180125
-3310.458029001371 9944.268548164773 -0.006640066550976586
-2930.288162000101 9452.902686188569 -0.00659623801210892
-2584.975108579243 8964.689730476377 -0.006667703656982208
-2272.59719307991 8481.879842207389 -0.006601076757385979
-1991.173127537536 8006.541718747411 -0.006661176668605623
-1738.682778465688 7540.562211487895 -0.006563001118942284
-1513.087992321794 7085.638496740002 -0.006605320150514067
-1312.354366511174 6643.273033159007 -0.006469952742942883
-1134.47217027563 6214.765774094067 -0.006491233414213043
-977.4768636633493 5801.214072509954 -0.006316351154237947
-839.4671249181656 5403.510289495741 -0.006316423113861769
-718.6211345815777 5022.348749390293 -0.006102735523797675
-613.2094708180638 4658.230734453753 -0.006083994072140945
-521.6054868464712 4311.477880024843 -0.005834597672119559
-442.2921313559603 3982.242292075877 -0.005801243565132934
-373.8663760833017 3670.525410724533 -0.005520815161458596
-315.0403718611216 3376.189778184015 -0.005478044005186915
-264.6408502400864 3098.980235079308 -0.005172073202435045
-221.6060234406403 2838.536473203706 -0.005125347498811052
-184.9813831002459 2594.413806510885 -0.004799505087950105
-153.9138543772096 2366.094166888983 -0.004754005271058009
-127.6455251578771 2153.005245217893 -0.0044136857683553
-105.5064818505267 1954.5296996593 -0.004373947831529936
-86.90769216780053 1770.021225225656 -0.004023989817152346
-71.33358285005039 1598.811360621948 -0.003993710674727166
-58.33499293268544 1440.222761526266 -0.003638265908369951
-47.52219294909801 1293.573708136831 -0.00362023591154006
-38.55844858595209 1158.188530204616 -0.003262747173843094
-31.15386212923512 1033.399710631182 -0.003258875191315477
-25.05982882229729 918.556441673707 -0.00290212191782793
-20.0638487417771 813.0244865676905 -0.002913517047857915
-15.9849452973507 716.1931038211621 -0.00255970057146539
-12.66945189598289 627.4732261761683 -0.002586780706775286
-9.987347593424943 546.3033883500178 -0.002237624708669948
-7.828927296304628 472.1460476201202 -0.00228023536642035
-6.101947937465328 404.4929968302993 -0.001937086501457095
-4.729062587903397 342.8609612324388 -0.001994616489369152
-3.645638161209937 286.7959464005583 -0.001658535776667356
-2.797817632077632 235.8682266571544 -0.001730023250743517
-2.140883337213153 189.6765269110879 -0.001401864730508434
-1.637817527189875 147.8427738970217 -0.001486088760797769
-1.258090410438926 110.015040893522 -0.001166563620619152
-0.9766098477371594 75.8632819490935 -0.001262123694178736
-0.7728352545757895 45.08158925763436 -0.0009518488120698272
-0.6300201031381566 17.38363227437469 -0.001057230539470883
-0.534572857578813 -7.495050440467299 -0.0007567649396580364
-0.4755176659348324 -29.80116642923868 -0.0008703946032929667
-0.4440377963771681 -49.76197795563494 -0.0005802638811369917
-0.4330970552996031 -67.58916641901187 -0.00070055281939953
-0.4371161135863685 -83.4768940704337 -0.000421265889303677
-0.4517114818561097 -97.6061177446559 -0.0005466459760734399
-0.4734664478840057 -110.1418917745757 -0.0002787039780489877
-0.4997549049585104 -121.2380865763542 -0.0004076571993043684
-0.5285806714680528 -131.0346489898175 -0.0001515566749221344
-0.5584601149969094 -139.6618334127597 -0.0002826387212260116
-0.5883103018632826 -147.2377512431783 -3.887203475912429e-05
-0.6173728392316156 -153.8721714574076 -0.0001707306926437548
-0.645136439436294 -159.6643674210337 6.021682239670275e-05
-0.6712893178394084 -164.7065654383667 -7.117435106848767e-05
-0.6956649933972386 -169.0817803822227 0.000146480406545627
-0.7182143561528938 -172.8670567328531 1.668106807124223e-05
-0.7389677876082252 -176.1314094493768 0.0002205855480352268
-0.7580207280953655 -178.938944684934 9.33732065679571e-05
-0.7755061182122203 -181.3466709294774 0.0002830915716962007
-0.7915885030503859 -183.4073692511333 0.0001593249777766009
-0.8064453898493322 -185.1678996913912 0.0003344472775635327
-0.8202649995219944 -186.6713410553607 0.0002148435920252876
-0.8332332924636463 -187.9555817663361 0.0003749903773664292
-0.8455355191200922 -189.0553659231161 0.0002601217466772317
-0.8573461548431056 -190.0008779801613 0.0004049466913897852
-0.8688322509242028 -190.8195651683952 0.0002952384755714747
-0.8801456492369369 -191.5348444636394 0.0004244308704419981
-0.891427153415865 -192.1677157811608 0.0003201612528836684
-0.9028002507113367 -192.7355962414923 0.000433446541894684
-0.9143756131534544 -193.2537697335381 0.0003347478529993883
-0.9262448507193088 -193.7341007375362 0.0004318873810608231
-0.9384868719744366 -194.1868139771413 0.0003387485170752933
-0.9511597825798587 -194.6187105773386 0.0004195380367873764
-0.9643079071078551 -195.0350516141188 0.0003318077508521672
-0.9779546413742451 -195.4380171030133 0.0003960755395145321
-0.9921078189097233 -195.8281732268491 0.0003134667550547861
-1.006752847512791 -196.2030470466654 0.0003610700627584942
-1.021858326822813 -196.5586488013357 0.0002831657485298783
-1.037368862113903 -196.8880358517589 0.0003139867410742907
-1.053208462899528 -197.1823300476815 0.0002402460238122942
-1.069276201341579 -197.4299891466523 0.0002541874748400824
-1.085447475587101 -197.617337480515 0.0001839525480249533
-1.101569392386985 -197.7278144713202 0.0001809323228749224
-1.117462570572364 -197.7426070708588 0.0001134367188209444
-1.132916096138005 -197.6398060600843 9.338263635315654e-05
-1.147689178791084 -197.394944532734 2.775859487789464e-05
-1.161507334843705 -196.9803509366733 -9.396881232451207e-06
-1.174063173637013 -196.3653943722783 -7.410942372196624e-05
-1.185013325308603 -195.5158379962101 -0.0001284347385951029
-1.193981437152643 -194.3943133806802 -0.0001932799537228018
-1.200553710994306 -192.9591566172942 -0.000264849541980396
-1.20428663555718 -191.165437659494 -0.0003309467860904557
-1.20470231187654 -188.9633450165566 -0.0004198465770353698
-1.20129846304496 -186.2990984596156 -0.0004883816549820784
-1.193549489200846 -183.1137974511399 -0.0005947137651678583
-1.180917511789052 -179.343700253585 -0.00066693087716009
-1.162861245821726 -174.919579010532 -0.0007908184745163314
-1.138850598101427 -169.7664958851438 -0.0008680122727363084
-1.108383017134672 -163.8031496501651 -0.001009604207191733
-1.071010081612822 -156.9421868426339 -0.001093113209948822
-1.026359855089102 -149.088702036341 -0.001252588465864662
-0.9741786929098809 -140.1409805834784 -0.001343788984405244
-0.9143673496788067 -129.9887702724631 -0.001521362136939572
-0.8470404253313301 -118.5140057760939 -0.001621663477424293
-0.772584035432315 -105.5892146777443 -0.00181759053286108
-0.6917355940813803 -91.07751967470131 -0.001928432643782834
-0.6056740359056524 -74.83178061671227 -0.002143017271475208
-0.516130706072662 -56.69425780251463 -0.002265870636412281
-0.4255148340744512 -36.49513580981984 -0.002499472394185643
-0.3370725039996558 -14.05288232197557 -0.002635840810343068
-0.2550609299673569 10.82779535292478 -0.002888885569292107
-0.184965936713315 38.35575269022233 -0.003040311419801493
-0.1337469439439278 68.75506941749885 -0.003313305447644383
-0.1101304030857327 102.2654065937667 -0.003481380276433899
-0.124943863738704 139.1442994307552 -0.003774926388695348
-0.1915183723146308 179.6662235743031 -0.00396130692043016
-0.3261378140520718 224.1262592639091 -0.004276126509736409
-0.5485775972647976 272.8393028453752 -0.00448255530386187
-0.8827150972837159 326.1431884476867 -0.004819516550306812
-1.357245062725017 384.3987818981797 -0.005047851160187291
-2.006499289189088 447.9930038886444 -0.005408003785093304
-2.871397383112292 517.3393883672771 -0.005660254043995399
-4.00054018210699 592.881170121047 -0.006044873521139461
-5.451470609568398 675.0922753211981 -0.006323249061990977
-7.292126675088877 764.4807587811226 -0.006733891367793643
-9.602510519903333 861.5900078239218 -0.007040861661989673
-12.47661482473888 967.002672381561 -0.007479431120722555
-16.02463255554835 1081.3426099196 -0.007817799493788719
-20.37550305909704 1205.278378657247 -0.00828663217314383
-25.67983556865223 1339.526223653675 -0.008659627318686655
-32.1132836709026 1484.854544021663 -0.009161592462267016
-39.88040619785973 1642.086544031768 -0.009572979440962108
-49.21913150656246 1812.105371040909 -0.01011160280176542
-60.40586652116289 1995.857434940419 -0.01056581667667672
-73.7614175525556 2194.35867219747 -0.01114542777461239
-89.65774056600621 2408.697462891935 -0.01164773375178303
-108.5257698397481 2640.041189844273 -0.01227363906595917
-130.8643783679437 2889.64063298333 -0.01283031924878472
-157.2507157282055 3158.835853814216 -0.01350900406755616
-188.3520494492796 3449.060606030129 -0.01412757072492673
-224.9394216629269 3761.848326149257 -0.01486692744016092
-267.9032496642999 4098.835730013726 -0.01555636099213743
-318.2712450962412 4461.767130659679 -0.01636593568815333
-377.2288691640237 4852.496921816878 -0.01713693892897742
-446.1426302180113 5272.990206693931 -0.01802819367630374
-526.5865290915006 5725.321133950403 -0.01889345177841672
-620.371943610846 6211.668183273636 -0.01988002264989785
-729.5810394095558 6734.30340532029 -0.02085446725688861
-856.6040010057964 7295.577142729755 -0.02195243306592015
-1004.179729911817 7897.892433140928 -0.02305352196629969
-1175.439806147461 8543.669681531017 -0.0242817296221659
-1373.954527419311 9235.294906232277 -0.02552985772415107
-1603.779654530336 9975.050780702188 -0.02691048444563236
-1869.500665925506 10765.02082991548 -0.028329815086934
-2176.270337119037 11606.96287434982 -0.02988963159260953
-2529.832478327697 12502.14048707951 -0.03151002136916649
-2936.521632434583 13451.10299443159 -0.03328327251985311
-3403.222905301881 14453.39723774542 -0.03514446771934426
-3937.269685393516 15507.1958868708 -0.03717870535987276
-4546.245521469096 16608.81407055605 -0.03933790492727754
-5237.642374394242 17752.08331460845 -0.04170270227147104
-6018.303756083508 18927.52704367054 -0.04424224919274767
-6893.546010808626 20121.24588775685 -0.04702996054776089
-7865.790027900242 21313.33243034998 -0.05003756807883071
-8932.417920293667 22475.41868521563 -0.05329295626449488
-10082.31098792181 23566.41820178406 -0.05667560279583742
-11289.85443509865 24524.02157356209 -0.05995212944069195
-12503.19045677964 25245.03730650321 -0.0624155787544796
-13616.54624687081 25532.73869269995 -0.06241454982061867
-14388.30596107142 24931.80148022046 -0.05574675286211747
-14130.74034637637 22104.19720827384 -0.03104911804382118
-10202.30688083942 11846.53484389437 0.04886527788402094
11683.42720061485 -34773.65929940995 0.3703549369295046
56210.52179951962 -65720.8126229816 0.01970632348516152
12636.09884600814 -21308.31097289097 -0.01481287604413626
-115.2766710820429 -8368.421834118526 -0.01966686049160974
-5022.929173341515 -2794.497820314657 -0.01901693448841037
-7032.406093793135 76.0221742025382 -0.01721283537303528
-7788.603751972338 1731.390195209386 -0.0154234915821137
-7948.334493177545 2763.918117577791 -0.01387467227090904
-7806.554570106172 3444.199914144638 -0.01267874334305125
-7507.917544609297 3909.236406734942 -0.0117090684322042
-7128.336850675529 4234.301566973055 -0.01101318948213861
-6709.74374097 4463.564493451554 -0.01042293891013196
-6276.175394001274 4624.316930899525 -0.01002791116854161
-5841.76188267489 4734.089250677467 -0.009648675560363406
-5414.933671283104 4804.451516149572 -0.00942478358072267
-5000.752386674219 4843.17668713767 -0.009158915744441521
-4602.2540934427 4855.547115989218 -0.009036466344364042
-4221.246939920972 4845.192221950646 -0.008832596103630082
-3858.79117572436 4814.64989214944 -0.008775627949774788
-3515.489279141235 4765.761058238904 -0.008605518146944472
-3191.656683135076 4699.948578409175 -0.008593380702075677
-2887.418943791742 4618.41851741813 -0.008438281927137256
-2602.761134001465 4522.295605622057 -0.008455995511855149
-2337.551213022174 4412.717602437113 -0.008300463501043635
-2091.546248117195 4290.88417508075 -0.008335109700331517
-1864.393743763715 4158.083616663202 -0.008165322521779527
-1655.630204074948 4015.689885726547 -0.008205611778613193
-1464.683401646312 3865.151279654528 -0.008009805239853507
-1290.876943006234 3707.961019325969 -0.008046839038927191
-1133.440496495709 3545.630686793303 -0.007816230913997271
-991.5224219496504 3379.653605212462 -0.007844276626873765
-864.2066309533316 3211.478567990807 -0.007573655601240199
-750.5299553636069 3042.478147739813 -0.007590402156003957
-649.5012916889685 2873.931093968887 -0.007278120528158759
-560.119149586281 2707.000381204582 -0.007284349909565334
-481.389014331491 2542.727206111793 -0.006931816192505835
-412.3376860695553 2382.01907359488 -0.006930673801391182
-352.0263405850788 2225.653923692976 -0.006541540586245146
-299.560101009705 2074.276036787331 -0.00653766103675148
-254.0961069651109 1928.408312711968 -0.006116948466669141
-214.8482449208103 1788.452737541541 -0.006115604030161384
-181.0906214169145 1654.706228294512 -0.005668939918192908
-152.1584444799493 1527.364870081909 -0.00567534189786169
-127.4479806898804 1406.540525778195 -0.005208371833793526
-106.4147110625739 1292.265618565473 -0.005227183237307495
-88.57107032318638 1184.510257556456 -0.004745181288948204
-73.48297291805967 1083.184933913061 -0.004780223078425904
-60.7664101112838 988.1578409865635 -0.004287874922478742
-50.083291415016 899.255665787001 -0.004341995895715057
-41.13761844295263 816.2788651924259 -0.00384332318660578
-33.6713035614462 739.0011428499785 -0.003918384079088403
-27.46044441549832 667.1832838084912 -0.003416759150892368
-22.31147400946135 600.5706955695333 -0.003513698370068711
-18.05781395765442 538.9054149674557 -0.003011912529427993
-14.55655741676872 481.9229544065112 -0.003130853296116644
-11.68561765239361 429.3624468191096 -0.002631213617396682
-9.340984276395369 380.9620957427069 -0.002771589487988009
-7.434402740033589 336.4689838027173 -0.002276020521623325
-5.891174900860907 295.6330401677324 -0.002436704631879293
-4.648322081152282 258.2159665143046 -0.001946843109128053
-3.652875241010899 223.9847497870819 -0.002126269864384875
-2.860453915443367 192.7200145480326 -0.001643547086103015
-2.233964321783001 164.2087691307864 -0.001839821270813156
-1.74252114635908 138.2522855061349 -0.001365530046698211
-1.360477107397239 114.6589601911435 -0.001576521654543308
-1.066615564229228 93.2512288987464 -0.001111866833419817
-0.8434400668213466 73.85863107599259 -0.001335292474100842
-0.6765776128336547 56.32438500651615 -0.0008814268330226965
-0.5542667614049276 40.4983779409022 -0.001114918687243142
-0.4669208540519069 26.24341102583052 -0.000672965354823396
-0.4067654231808452 13.42841867707963 -0.0009141290955024256
-0.3675209891923051 1.934192414454907 -0.0004851946745453606
-0.3441505852269089 -8.352902940404347 -0.0007316566404045548
-0.3326302056315934 -17.53551935041055 -0.0003168358490989923
-0.3297774907561209 -25.71169610271266 -0.0005662835513143212
-0.3330854711180998 -32.9693857261076 -0.0001666574431668515
-0.3406089700679307 -39.39252499679258 -0.0004168730617648647
-0.3508448192350687 -45.05605508768438 -3.350298141623077e-05
-0.3626589932643598 -50.03150693620601 -0.0002823909831872138
-0.3751998044927525 -54.3823849926025 8.368970446586728e-05
-0.3878533483509886 -58.16927257173063 -0.0001619206787896878
-0.4001803449578573 -61.44561657489722 0.0001858760751660978
-0.411891569689857 -64.26256042507036 -5.467194383146266e-05
-0.4228002660930157 -66.6647275377826 0.0002738952785084149
-0.4328114671348486 -68.69490851352907 4.001457001964119e-05
-0.441886415234487 -70.39021069218109 0.0003484659644265963
-0.4500397411318217 -71.78616071789757 0.0001226645743434115
-0.4573125297654083 -72.913259017005 0.0004101822522622894
-0.4637748433329291 -73.80069531333987 0.0001936704789097785
-0.4695049003218075 -74.47325494174929 0.0004595132580809649
-0.4745944010334955 -74.95457808475426 0.0002532921564015056
-0.4791321355185535 -75.26441243477234 0.0004968013667641831
-0.4832112703438836 -75.42159188443593 0.000301659216756591
-0.4869154819969235 -75.44143981964034 0.0005222632798543681
-0.490327004183997 -75.33844667741837 0.0003387733133333402
-0.4935153372852663 -75.124016716678 0.0005359896625898908
-0.4965449939697134 -74.80876812295416 0.0003645108136527894
-0.4994660904076033 -74.40057884073802 0.0005379462114312197
-0.5023218269340117 -73.90662616289661 0.0003786256329982044
-0.5051387577065586 -73.33129583405795 0.0005279742237934458
-0.5079369684543386 -72.67874174415532 0.0003807519013495284