# OOMMF: rectangular mesh v1.0
# Segment count: 1
# Begin: Segment
# Begin: Header
# Title: No title
# Desc: Exported from OMFFile::write()
# meshunit: m
# valueunit: A/m
# valuemultiplier: 1.0
# xmin: 0
# ymin: 0
# zmin: 0
# xmax: 5e-07
# ymax: 1.25e-07
# zmax: 3e-09
# ValueRangeMaxMag: 249214
# ValueRangeMinMag: 380.178
# meshtype: rectangular
# xbase: 1.25e-09
# ybase: 1.25e-09
# zbase: 1.5e-09
# xstepsize: 2.5e-09
# ystepsize: 2.5e-09
# zstepsize: 3e-09
# xnodes: 200
# ynodes: 50
# znodes: 1
# End: Header
# Begin: Data Text
-69535.88251570475 -33801.74132292831 0.09839983190652399
-19069.85699741782 -85506.9196943656 0.1158611869351735
-13262.32487746637 -95264.63470918994 0.1189098107390526
-12501.11916998506 -96419.92876518179 0.1197677132914122
-12742.35734877461 -94720.30896237353 0.1204128632293586
-13181.66534822198 -91827.90282294987 0.1212877282111408
-13609.78344168805 -88382.27765755044 0.1224513672643507
-13968.33083433064 -84677.39907301143 0.1238446775369316
-14244.27029259621 -80865.31850402852 0.1253795612792022
-14439.07866577295 -77031.45773179329 0.1269516706966056
-14558.60121297433 -73226.7332301194 0.1284857518315963
-14609.52980064465 -69482.86098642474 0.1299091073825008
-14598.23968099867 -65820.26857461673 0.131153007463138
-14530.49704835193 -62252.45527454891 0.1321634433363691
-14411.47678716295 -58788.51615274839 0.1329134792167899
-14245.87500072634 -55434.67651587371 0.1333571392976108
-14038.05819846324 -52195.20615901298 0.1334805793176121
-13792.17867882399 -49073.01282215401 0.1332628040777049
-13512.25708414096 -46070.01694860373 0.1326898361657213
-13202.22931773079 -43187.37639561646 0.1317740957211828
-12865.9842654373 -40425.63131734967 0.130509870810389
-12507.35086870534 -37784.79330740701 0.1289115675965076
-12130.09415465999 -35264.403531093 0.1269932832480425
-11737.8878661241 -32863.5642171916 0.1247775107008492
-11334.26095402147 -30580.97457623975 0.122286964267742
-10922.59338384131 -28414.93458418608 0.1195431725158235
-10506.0583970745 -26363.38373616884 0.1165753554887845
-10087.60944685238 -24423.91816638941 0.1134140235840017
-9669.947811366179 -22593.81339788921 0.1100838430374677
-9255.51222367901 -20870.05792082013 0.1066173758140131
-8846.467866530787 -19249.38874249077 0.10303586540573
-8444.705924355689 -17728.31580183415 0.09936963677469726
-8051.852026493216 -16303.17284641016 0.09564416067867879
-7669.263250093882 -14970.14472605803 0.09189164243692888
-7298.056301621586 -13725.30844504168 0.0881171935129462
-6939.110109288424 -12564.6682223885 0.08435382586992957
-6593.098127601199 -11484.19116667296 0.08061488430734176
-6260.494748655923 -10479.83510606521 0.07691554264460748
-5941.610581088345 -9547.582565544108 0.07326789361323521
-5636.600756261672 -8683.467538235418 0.06968926642939455
-5345.488164083699 -7883.591725383247 0.06618197883304364
-5068.186580358049 -7144.154963263652 0.06276097689303635
-4804.514825400176 -6461.456176382391 0.05943043116922901
-4554.209050349801 -5831.925683641623 0.05619646083215479
-4316.943225855321 -5252.125787787835 0.05306588286145358
-4092.342196861369 -4718.754730194662 0.05003711465555964
-3879.989555648389 -4228.66011666159 0.04711009457255635
-3679.440268838785 -3778.842223471631 0.04429366061883448
-3490.231992852594 -3366.449686402103 0.04158270720261478
-3311.886335127965 -2988.786196539225 0.03897832622241183
-3143.916797805123 -2643.302418136064 0.03647817505579203
-2985.839970779658 -2327.600557403438 0.0340784980089403
-2837.175670355551 -2039.426081712023 0.03178175963513264
-2697.451634611225 -1776.662897848118 0.02958795639175064
-2566.201515016446 -1537.333124277346 0.02749185038103177
-2442.975053231072 -1319.583702964642 0.02548524590505351
-2327.335312189464 -1121.691548466229 0.02356672145296518
-2218.861435807155 -942.0483420316127 0.02173909550474278
-2117.147558361276 -779.1573739182713 0.01999772665410658
-2021.80659559882 -631.6305837522259 0.01833674907373639
-1932.469429574526 -498.1790029732629 0.01675447830510204
-1848.783505998153 -377.607676121828 0.01524645195096852
-1770.414081817059 -268.8113700669999 0.01381414287441308
-1697.041668530715 -170.7673712887289 0.01244980473629083
-1628.365067726369 -82.53052075044044 0.01115286017934011
-1564.098414974682 -3.227098202302216 0.009917440494955167
-1503.974583152728 67.94699015787785 0.008745406139599999
-1447.738270645215 131.7331869938474 0.007633432412121707
-1395.149446927846 188.8156660513915 0.006575940054257091
-1345.986349451771 239.8212575128939 0.005570297923966981
-1300.034583168379 285.3297641029146 0.004619141646287857
-1257.095521648561 325.8721179672307 0.003712757218282507
-1216.98276744539 361.9371528765862 0.002855191162783301
-1179.520731787909 393.9727263790674 0.002040380206505363
-1144.544446591502 422.389663579633 0.001271550903679745
-1111.899430709469 447.5653262997243 0.0005446149319711727
-1081.442530326354 469.8436887436246 -0.0001436721924240117
-1053.037100593874 489.5427820124528 -0.0007933850446448718
-1026.556181797441 506.9497406838154 -0.001405104205792339
-1001.880004005136 522.3293110280429 -0.001982893874706744
-978.8984413216001 535.9233944151587 -0.002525834941638543
-957.5062513761857 547.9517978439552 -0.003037184775784404
-937.6052696096848 558.6166982921363 -0.003516381132831179
-919.1042167001422 568.0999925502747 -0.003962136860771369
-901.9163761012223 576.5683553887876 -0.00437719752778036
-885.9606547854074 584.1740620783085 -0.004760299294013913
-871.1614164708195 591.0541178154008 -0.005114831951431052
-857.4484799317497 597.3322130903803 -0.005443474745575196
-844.7541083904345 603.1219759741214 -0.00574247784597133
-833.0156185545901 608.5242354166191 -0.006014803496245509
-822.1726930388073 613.6289741328033 -0.006257957213992929
-812.1702724471241 618.5194137321459 -0.006473649159261366
-802.954969121787 623.2662279043934 -0.00665823644695758
-794.4767961189355 627.9344488241122 -0.006818720835610081
-786.6879276085424 632.5811722084763 -0.006951124322108052
-779.5443384592771 637.255552327862 -0.007056028693056153
-773.0008649544616 641.9989594479971 -0.007129893135794672
-767.0170025452803 646.8471216685443 -0.007175073098285807
-761.5530581765664 651.8290543262665 -0.007193273225017435
-756.5706464010349 656.968784227186 -0.00718031507539111
-752.032914404253 662.2836477442634 -0.007136943539351973
-747.9034799223455 667.7845535518954 -0.007064732987901237
-744.1477963443447 673.4774841811595 -0.006960156550611732
-740.7312578136959 679.362697642744 -0.006823066675530898
-737.6193886050571 685.4354245949053 -0.006652852784267069
-734.7785255670053 691.6841063663978 -0.00644619616572481
-732.1759761288747 698.0929496012977 -0.006202207797151971
-729.7773606045121 704.6388738000314 -0.005921812242580968
-727.5496295608061 711.2935956267866 -0.005605872952918159
-725.4598084930974 718.0223906381561 -0.005249089244485916
-723.4735569360741 724.7844136310432 -0.004848094615309329
-721.5556105339624 731.5307863347771 -0.004407355713647157
-719.6706497731875 738.2077177326028 -0.00392354068591963
-717.7834820812659 744.7516399857159 -0.003391375462825807
-715.8556842935864 751.0928655664866 -0.002814230974161835
-713.8497427318584 757.152495919614 -0.002186166099121034
-711.7258035178156 762.8433233711912 -0.0015063208680203
-709.4436391397348 768.0685859333789 -0.0007739185229937995
-706.9602640305802 772.7202460395674 1.207536028571821e-05
-704.2317010783809 776.6823291651235 0.0008574035986627926
-701.2128354690982 779.824594612523 0.001762913951045145
-697.8576423410382 782.0068875729933 0.002730043530734765
-694.1154371526806 783.0748037772339 0.003756591045196133
-689.936235185793 782.8604352675802 0.004848613482829844
-685.2652662614355 781.1821443867086 0.00600849323788979
-680.0492127978102 777.8420903720806 0.007237987501612267
-674.228677044139 772.6252783432285 0.008539880882752642
-667.7444349454782 765.300225348789 0.009919436329653518
-660.5343628391601 755.6159159977651 0.01137561102291085
-652.5350442950701 743.3004422767868 0.01290988086304191
-643.6788006882844 728.0619011088454 0.01452642734869481
-633.8966236200862 709.5854862075009 0.01623028094902599
-623.1165921943643 687.5324111876471 0.01801818577693359
-611.2665198621861 661.5379614552432 0.01989604308988578
-598.269800877235 631.2095344332702 0.02186512445250175
-584.0495985885094 596.1281587341681 0.02393320480480923
-568.525442316067 555.8427807764876 0.02609468099203963
-551.6144342561635 509.869534595931 0.02835292367218281
-533.2339848791951 457.6908684331387 0.03071239139759935
-513.2986984795166 398.7521965260906 0.03317789871343306
-491.7230334977633 332.4620553502393 0.03574739170324644
-468.419657385818 258.188048963221 0.03842653951422071
-443.3002179639791 175.2529939198528 0.04121377744265316
-416.2769046196502 82.93586384524443 0.04411459327372651
-387.2606145741039 -19.53316340902776 0.04712899963302786
-356.163096519119 -132.9769384444865 0.05025907285610156
-322.8982886066046 -258.2712392979057 0.05350674898621564
-287.3805661688534 -396.3491717957776 0.05687925573992079
-249.5251611289211 -548.2053862205395 0.06037487622783699
-209.2525677217507 -714.9003082442596 0.06399543847290726
-166.4852958287784 -897.5623644570067 0.0677394447667565
-121.1524188996677 -1097.39403654895 0.07161430221083342
-73.18181706046562 -1315.675061526179 0.07562049104734136
-22.52057077849122 -1553.770596465969 0.07976218318880775
30.8895338667071 -1813.132617257449 0.08404128847433104
87.09005732906007 -2095.311416169518 0.08845687629957077
146.1139605773424 -2401.955533974851 0.09301579764681375
207.9828829153139 -2734.825566077763 0.09772274427536115
272.7024343877965 -3095.797163291997 0.1025793200719509
340.2598673896064 -3486.87443896422 0.1075881007154185
410.6258170464831 -3910.197254949976 0.1127563853735158
483.7442476147431 -4368.049936049578 0.118087930143128
559.53700867111 -4862.878619279705 0.1235901333554437
637.8905006620714 -5397.298053435748 0.1292723080930955
718.6578471296962 -5974.114286952118 0.1351382189864807
801.6459378230791 -6596.332252860197 0.1411951275059405
886.6145856459984 -7267.175515493465 0.1474617958608289
973.2660439492395 -7990.111390533652 0.1539405816933488
1061.230245326019 -8768.866328857819 0.1606545962206778
1150.054667358542 -9607.451464096072 0.167612525720339
1239.192151301543 -10510.18981864613 0.1748370562310484
1327.978096808847 -11481.74567784405 0.1823435893173681
1415.606265747244 -12527.15290262047 0.19015563790568
1501.098830488007 -13651.8547555029 0.1983047341029275
1583.281149179787 -14861.73668747581 0.2068194789309456
1660.721036820762 -16163.16372196218 0.2157334648022731
1731.683568546504 -17563.03115415001 0.2250841108902533
1794.056102370345 -19068.81152981069 0.2349262215021631
1845.257186347429 -20688.59124744474 0.2453108084461989
1882.119410505198 -22431.13143256764 0.2562893355260525
1900.743328469573 -24305.91322900557 0.2679402398641074
1896.28589491441 -26323.19403003924 0.280331786027333
1862.704848429148 -28494.05237200505 0.2935631191451048
1792.387136978158 -30830.44950383192 0.3077347755776969
1675.679874137851 -33345.27725748897 0.3229714716962355
1500.170020153147 -36052.42289297266 0.3394076708202696
1249.712571119498 -38966.85433015826 0.3572142296098412
902.9877599489355 -42104.75893558728 0.3765761142270731
431.3097479477219 -45483.81139862607 0.3977126587326207
-204.7603355568663 -49123.70999639162 0.4208772269977432
-1060.933998978412 -53047.25203595455 0.4463518104551212
-2218.551685503479 -57282.64804333086 0.4744538303189239
-3801.365362626403 -61868.38463573658 0.505504414147408
-6007.772693667819 -66863.94737007459 0.5397807698808352
-9178.195998201951 -72374.40027028132 0.5773999405627959
-13952.37770545877 -78610.75130008072 0.6180147362610057
-21695.67185543421 -86053.9819492872 0.6601371340214035
-35928.86381712607 -95970.79369504438 0.6989989853439791
-68978.02124779481 -112381.1372628305 0.7184017572876402
-199445.6637500158 -149427.280817465 0.6306430525544157
-119431.3316765816 -2214.219669738607 0.1167332881086786
-35697.83501230364 -18481.35767580483 0.1384345322347716
-18394.42148252716 -26813.73534924162 0.1422124286100001
-13572.15561324465 -30193.10316308379 0.1431704890547355
-12104.44893072977 -31259.9432062109 0.1438840980640032
-11733.04308172247 -31202.64450010597 0.1449142099441926
-11751.49042834062 -30563.20819682549 0.1463234593224602
-11901.36510836807 -29610.06672906232 0.1480321649848816
-12078.2695003526 -28486.85895149177 0.1499255544392592
-12237.68740539436 -27275.37562016215 0.1518740491816296
-12360.49645011929 -26024.4232882342 0.1537811534450791
-12439.01467772454 -24764.13909056711 0.1555564346690709
-12470.94682993051 -23513.57229618754 0.157114906224719
-12456.64017712564 -22284.92349207473 0.1583899638139983
-12397.78085624542 -21086.03232170554 0.1593481314705005
-12296.76127108871 -19921.91189220989 0.1599338394724594
-12156.39758386394 -18795.68878386235 0.1601276598381088
-11979.77211995039 -17709.23113051344 0.1599074532526002
-11770.15242281486 -16663.56479299853 0.1592557028145256
-11530.9235921285 -15659.13940267343 0.1581866190494143
-11265.56014176371 -14696.01554974677 0.156693974447943
-10977.5641039766 -13773.98515431633 0.1547947322862499
-10670.431419233 -12892.65729160896 0.1525059268903001
-10347.60506281138 -12051.50744447974 0.149856257159914
-10012.40667305246 -11249.91999596347 0.1468727761940991
-9668.026109350745 -10487.19150317997 0.1435832621437926
-9317.462089487704 -9762.559403479998 0.1400192693682094
-8963.5052052049 -9075.203333785656 0.1362236228399741
-8608.705346658251 -8424.243646814932 0.1322211258520545
-8255.364381499279 -7808.747304695582 0.1280532442934667
-7905.525515816353 -7227.732510657157 0.1237471849953802
-7560.972533196126 -6680.161536213707 0.119339055077583
-7223.239671230778 -6164.956238077029 0.1148599579599272
-6893.61151122602 -5680.995357850014 0.1103465501323098
-6573.14892262001 -5227.119962524654 0.1058075343994955
-6262.692440132568 -4802.142871659842 0.1012815150028723
-5962.89485125546 -4404.853191201481 0.09678444837598182
-5674.224873220057 -4034.022943870346 0.09233684694081129
-5397.004351255222 -3688.41717516445 0.08794983157455344
-5131.413184950856 -3366.802806359701 0.08364628573824673
-4877.510258939556 -3067.948735600106 0.07942883766864514
-4635.258307560985 -2790.643960448882 0.07531597102022711
-4404.533701938073 -2533.688119938166 0.07131098221915369
-4185.138183368013 -2295.913861074885 0.06742458641917631
-3976.815799796827 -2076.183871925839 0.06366073146673756
-3779.269873879368 -1873.390584504931 0.06002089335488087
-3592.163723231035 -1686.465643380577 0.05650266592332669
-3415.135074062106 -1514.384849601387 0.05311797329203487
-3247.805715955305 -1356.161938459238 0.049859913395425
-3089.781727326365 -1210.858508067008 0.04673097858463828
-2940.661532103449 -1077.577434429558 0.04372601297328875
-2800.043916310931 -955.4702795949075 0.04084467673284498
-2667.53034521004 -843.7325837515083 0.0380847195211791
-2542.728879070622 -741.6033832452844 0.03544936280185819
-2425.248900860771 -648.3682662381354 0.03292976139478075
-2314.714754651338 -563.3509853291903 0.03052058380450578
-2210.760512644098 -485.9225202331104 0.02821649196342312
-2113.03293467054 -415.4907640282181 0.02602288957999124
-2021.190909990172 -351.50169893125 0.02393073370378915
-1934.908619883213 -293.440339509302 0.02193686234978526
-1853.874782878143 -240.8255670220185 0.02003514085783903
-1777.791455013585 -193.2096638799495 0.01822553367180844
-1706.375539440842 -150.1777054811196 0.01650437648335674
-1639.355488888121 -111.3435106485728 0.01486718430559127
-1576.476005784512 -76.34987301176648 0.01330889040730604
-1517.493328515823 -44.86410804100228 0.01182692911962568
-1462.179002581154 -16.5804162625783 0.01041878864639675
-1410.315652718359 8.783318681230526 0.009084062979704179
-1361.697377307066 31.49023309580588 0.007813163071762622
-1316.134000824907 51.77893842173 0.00660695621809184
-1273.44110836662 69.87320609942026 0.005463432340934334
-1233.447263739428 85.97721475136473 0.004376419564388334
-1195.992010549221 100.2794764657353 0.003346110607790068
-1160.922843745343 112.9531682077416 0.002369040290602364
-1128.096862294109 124.156910804008 0.001444740985960209
-1097.380046636483 134.0368971419537 0.0005727390101095547
-1068.647197505776 142.7258976156536 -0.000254573478101823
-1041.779555194415 150.3482637925808 -0.001034028311975375
-1016.665780597097 157.0142353644501 -0.00176970976947901
-993.2008670033611 162.8271387874929 -0.002462496049921936
-971.2882211672056 167.8809010100085 -0.003115670604277622
-950.8351338071229 172.2607214126425 -0.003728884910320029
-931.7548117560561 176.0456286815446 -0.004305054153274472
-913.9665880362717 179.3057840968478 -0.004839584035074888
-897.3939287958258 182.1054986513341 -0.005338982183026246
-881.9646434104013 184.5045606493439 -0.005799595830679766
-867.6112248184506 186.5555739098211 -0.006226973970859681
-854.2713577185571 188.3061260723186 -0.006621359207618686
-841.8846040174269 189.8001962662947 -0.006981579823788706
-830.3949327300528 191.076302706383 -0.007308300475917545
-819.7480160032617 192.1684449938133 -0.007601105465598612
-809.8948814359969 193.1088072230662 -0.007860184374194397
-800.7869842486717 193.9233828640758 -0.008083670327812466
-792.3798411981866 194.6363427047818 -0.008276635054772774
-784.6304785866818 195.269360198954 -0.008437113157698302
-777.4989128297145 195.8404674211004 -0.008563465425794545
-770.9446589186384 196.3639921284887 -0.008654196048450698
-764.9308907657819 196.8521470925612 -0.008709791373228901
-759.4219042249133 197.3145425077225 -0.008732901988031241
-754.3832604581324 197.7592837037514 -0.008717967912647145
-749.7817765927164 198.1911166212967 -0.008667744901617883
-745.5845315854851 198.6120016726345 -0.008581940946694233
-741.7604834825593 199.0223582813296 -0.008458015716756723
-738.2788214291427 199.419661308455 -0.008293870618629087
-735.1081791248091 199.8000721839708 -0.008090837110142829
-732.2189447803839 200.1561132545412 -0.007843643841459289
-729.5818911976814 200.4794275910926 -0.007552753350855715
-727.1665257593022 200.7578953247585 -0.007217476581021481
-724.9433833252183 200.9776560980899 -0.006839231940337864
-722.8838036887416 201.1218493751894 -0.006412022415359542
-720.957171942945 201.1719530033924 -0.005932976445881671
-719.1332986440739 201.1043306558267 -0.005405363342897679
-717.3809616795593 200.8959209711074 -0.00482608913280258
-715.6697265982334 200.5176390027891 -0.004188863481149968
-713.9664181119288 199.9386641552182 -0.003497123814814235
-712.238872854643 199.1244256181399 -0.002744550441757115
-710.4530127795497 198.0369978230483 -0.001929972469846775
-708.5745754482068 196.6348137032692 -0.001052360773742184
-706.567224270264 194.8706656600425 -0.0001094019041568139
-704.3937906340798 192.696310967307 0.0009036813344935335
-702.0165850828823 190.0555619530115 0.001989166720695278
-699.3971579480761 186.8895729190481 0.003148530956183247
-696.4935908158129 183.1335140622781 0.004380015430630763
-693.2641616265341 178.7168625850146 0.005690076697866798
-689.6639748694301 173.5644614652812 0.007082249649553845
-685.6495471484091 167.5940540331438 0.008558054861597409
-681.1725481269656 160.7166434402808 0.01012100800523889
-676.1846740408668 152.8373018535387 0.01177691284100815
-670.6361827955218 143.8528661082878 0.01352539452885989
-664.4767538237927 133.6515243279846 0.01536780779646608
-657.6522995193916 122.114105914528 0.01730965021838857
-650.1083111705518 109.1129125263077 0.01935566869840036
-641.7882110157979 94.50994634017312 0.02150381733291418
-632.6366707080425 78.1570456427463 0.02375957258643589
-622.5946605077577 59.89481863280152 0.02612547919695798
-611.6033205774349 39.5543523189958 0.02860976906968448
-599.6021942031233 16.95289611105409 0.031207280917458
-586.529570466123 -8.104915562927459 0.03392156474814718
-572.3248836939706 -35.82856310863224 0.03675815778961207
-556.9266589108771 -66.44249431094477 0.03972111416504066
-540.2740144081656 -100.1850475102985 0.04281099364940437
-522.3061731291643 -137.3115820790836 0.04603145738566491
-502.9631838877618 -178.0969091245547 0.04938383169579934
-482.187187839962 -222.8320056285505 0.05287246871345756
-459.9208689693166 -271.8291367825846 0.05649846928257105
-436.1100011394259 -325.4234290724939 0.06026399635139965
-410.7045818251129 -383.9715536443197 0.06417254741898072
-383.6568876337956 -447.8541918508103 0.06822988859886717
-354.9241342601717 -517.4783156734179 0.0724359278814813
-324.4693119177093 -593.2800848305193 0.07679234800211515
-292.261723791763 -675.7248717022846 0.08129961443405129
-258.2806889841809 -765.310054662312 0.08596408747767713
-222.5066488905914 -862.5677416059741 0.09078724235206535
-184.9442992156646 -968.0690303157837 0.09577394251487742
-145.5964807334694 -1082.423464494682 0.100926175387991
-104.4877503352636 -1206.287171802663 0.1062443066306901
-61.65641564793987 -1340.359867114926 0.1117364833123062
-17.15656937805761 -1485.395985957459 0.1174063324102438
28.93438144395623 -1642.202489361276 0.1232571629928207
76.51340561590769 -1811.649989339949 0.1292919371068568
125.4546353864761 -1994.674454768015 0.1355200818692616
175.5974810098294 -2192.282414078608 0.1419455877258902
226.7480816977197 -2405.561555459467 0.1485780535456484
278.6691349234518 -2635.683356326939 0.1554260948795211
331.0768613018667 -2883.919264798858 0.1624974833999594
383.6294981884984 -3151.640793529466 0.1698004348414877
435.9243455403504 -3440.333236424809 0.1773555419388637
487.4845052068002 -3751.611529958637 0.185167688289355
537.7452201704225 -4087.227209578715 0.1932630181468817
586.0387192511525 -4449.085347963633 0.2016521390609114
631.5831272447276 -4839.259962615273 0.2103640698367362
673.4532571863724 -5260.014540243945 0.2194155177287553
710.5601880344016 -5713.814552522213 0.2288360748879819
741.6118974265739 -6203.359589588516 0.2386609822592726
765.0908775737716 -6731.598702233815 0.2489258210943605
779.1868141645718 -7301.75595768279 0.2596711051793203
781.7513951954088 -7917.367850243712 0.2709402413702021
770.2169097332378 -8582.315077551864 0.2827971228918886
741.5055608593041 -9300.847284022959 0.2953028124286208
691.9069401574329 -10077.63273410386 0.3085190716628816
616.9300554824604 -10917.79587311307 0.3225368212861803
511.0827537033347 -11826.97006128069 0.337439057549103
367.613538630605 -12811.34740433921 0.3533399864921137
178.1303704687589 -13877.75429232973 0.370358948071874
-67.88556867381794 -15033.7282637702 0.3886409120370298
-383.8326007353153 -16287.63057554191 0.4083435919684421
-787.0179656263199 -17648.80650988242 0.4296661244834186
-1300.209179257155 -19127.82408686075 0.4528244507180647
-1954.035739425949 -20736.8738734822 0.4780746779252296
-2790.782606669331 -22490.44596448965 0.5057129271834377
-3870.706239394478 -24406.49391365643 0.5360689662483088
-5282.973775785636 -26508.5936012024 0.5695131696444757
-7165.729757282395 -28829.88523516214 0.606422121898353
-9745.328810662177 -31420.55865653588 0.6471193421708139
-13419.45641228394 -34362.16974252784 0.6917328911665791
-18951.81684086646 -37794.68884740227 0.7398211931122221
-27991.48703360302 -41961.96148919096 0.7894965743978952
-44721.79529964205 -47236.92031767804 0.8346627124425698
-82532.06997926364 -53648.46256904838 0.8544194346269431
-206523.2599521798 -56751.38453770689 0.7420493987857999
-129045.8566640039 -865.0815195586915 0.1211410868007248
-44008.11198719162 -6161.137194860706 0.1438035259086801
-22808.08903086048 -10608.87229875598 0.1479175997513761
-15582.5775158973 -13257.48236614966 0.1489800152678833
-12816.75505375002 -14600.00067314523 0.1497720971693832
-11736.78771945013 -15141.94223895662 0.1509111696697203
-11357.30997873435 -15207.23970856744 0.1524655367398369
-11279.79168630542 -14987.97412689056 0.1543480553886558
-11327.40634730575 -14598.39668548568 0.1564336701047657
-11416.32036340666 -14108.06327069494 0.1585819511418601
-11504.99757229677 -13560.36940761291 0.1606875778626439
-11572.41347751956 -12982.94980334853 0.1626500863978577
-11608.03668499315 -12393.64950603699 0.164381086585459
-11606.97495618048 -11804.0644029616 0.1658089550337455
-11567.50681678981 -11221.71341284897 0.1668969211917362
-11489.7718088713 -10651.42587891922 0.167586581053703
-11375.08210777259 -10096.21619654939 0.1678575809881868
-11225.51346204232 -9557.888548595416 0.1676859442467473
-11043.66051186177 -9037.446036362207 0.1670545933948105
-10832.46573568013 -8535.361332683289 0.1659765386062017
-10595.11392632857 -8051.769635647591 0.1644491046286568
-10334.92070136204 -7586.597134506744 0.1624867716947238
-10055.26779246896 -7139.653586922723 0.1601115578565107
-9759.5250514254 -6710.684804713892 0.157350077788713
-9450.969831222279 -6299.41759992489 0.1542348190523971
-9132.761961878776 -5905.56209888904 0.1507930160869878
-8807.87715691656 -5528.838882220883 0.1470623339954254
-8479.083293155907 -5168.973781875015 0.1430828450370557
-8148.906886311669 -4825.692390976792 0.1388857703541036
-7819.623956047226 -4498.716437122302 0.1345118437353345
-7493.248844339339 -4187.762824314583 0.1299935323442128
-7171.534528309578 -3892.525845814524 0.1253654164202061
-6855.985356735542 -3612.686593811933 0.1206632704382471
-6547.853688910647 -3347.899854705347 0.115921890232781
-6248.170822700818 -3097.79393601962 0.1111551937004128
-5957.751292411512 -2861.970858231518 0.1064004365533136
-5677.224850658162 -2640.006921399341 0.1016774509921793
-5407.041152189191 -2431.451153859169 0.09700412999907793
-5147.508833288106 -2235.831944506921 0.09239837935034051
-4898.798411360389 -2052.660579340612 0.08787737052110783
-4660.965710074826 -1881.428531638281 0.08344815420931266
-4433.975265130757 -1721.622327644317 0.07912683695826292
-4217.709484085435 -1572.712924276664 0.07492137880180361
-4011.981528483999 -1434.174546951254 0.07083721352279082
-3816.551362050486 -1305.482503822611 0.06688534172751051
-3631.139077584931 -1186.111099618048 0.06306020232837076
-3455.430698468238 -1075.543065241368 0.05936694545591896
-3289.087545308636 -973.2748637963613 0.05581000027841959
-3131.757226500154 -878.8107766838085 0.05238846877051735
-2983.07399898638 -791.6737997486696 0.04910020931457255
-2842.6647027829 -711.3985614114127 0.04594497773577659
-2710.157875644009 -637.5419503259282 0.04291640619058909
-2585.184617751454 -569.6769932126542 0.04001872202834617
-2467.38289227875 -507.3952962859529 0.03724738205588957
-2356.391990944541 -450.3101104428818 0.03460108449841828
-2251.86530388525 -398.0501867540772 0.03206834325944168
-2153.465430227206 -350.2695926822602 0.02964876697785099
-2060.866455896903 -306.6384397696108 0.02734097071247696
-1973.754966211435 -266.8458028987552 0.02514376313664993
-1891.83009679455 -230.6012810830493 0.02304601251641539
-1814.805747404353 -197.6317600753294 0.02104855576147931
-1742.407459717761 -167.6808241281991 0.01914453390467729
-1674.374612962918 -140.5106043028832 0.01733711011550449
-1610.456899635204 -115.8977161924702 0.015613563797148
-1550.419165709497 -93.63487963386802 0.0139772336772567
-1494.03644236033 -73.52765146752631 0.01241652400901056
-1441.098576547634 -55.39736224573909 0.01093737489889572
-1391.404212404299 -39.07836043564203 0.00953182725186319
-1344.76363750263 -24.41468625036839 0.008197137607382762
-1301.001514645154 -11.26604222897208 0.006926961428283342
-1259.946802242519 0.5011098968448096 0.00572571368832258
-1221.44077745563 11.00832598672923 0.004580373737083289
-1185.335392637837 20.36820231906995 0.003498781001120249
-1151.488626493157 28.68436089587863 0.002469227961791123
-1119.768194037034 36.05202891256408 0.001498946958554521
-1090.049582447697 42.55948016591833 0.0005797189442099254
-1062.216634926583 48.28642687320075 -0.0002891764499441535
-1036.158449660952 53.30844459599007 -0.001111360064277138
-1011.771678531575 57.69131273312041 -0.001883744292665052
-988.9581894693547 61.4983268775502 -0.002614633072585124
-967.6278228885828 64.78631430825709 -0.003299965440643433
-947.6941819815567 67.60669753182077 -0.003947045768693411
-929.0759572652292 70.00805862087762 -0.004551914794075261
-911.6976364570467 72.0326446362472 -0.005116291768836607
-895.4871280906411 73.7195699977587 -0.005640652086437437
-880.3772013919649 75.10534663241015 -0.006127075630979487
-866.3042361320531 76.22203144763853 -0.006575307477756975
-853.2099470832137 77.09805608730738 -0.006991447755843684
-841.0371304508762 77.76037912297636 -0.007369076287486148
-829.7331774927338 78.2322079788712 -0.007714129072773968
-819.2468291841158 78.53362552358965 -0.008020456333712442
-809.532152672286 78.68444641406847 -0.008294596737318055
-800.5431903694979 78.69953203128136 -0.008529290278395371
-792.238029108417 78.59325132503841 -0.008733179335293217
-784.5761015932676 78.37857617598991 -0.008900874032900477
-777.5197380342347 78.06581228440655 -0.009034675456341214
-771.0305032660915 77.66278616776685 -0.009129469752708168
-765.0740523501563 77.17599822828038 -0.009188883620092583
-759.61619781935 76.61051777906096 -0.009211857208802993
-754.6248790354236 75.97052704503562 -0.009197290942752179
-750.0684587971173 75.25776292147202 -0.00914346294079138
-745.9158313099815 74.47217987894555 -0.009053974857957614
-742.1381662181516 73.6127746548018 -0.008923069178986803
-738.7063557462491 72.67658498716719 -0.008750874959167695
-735.590714623657 71.66046237475439 -0.008536411515167402
-732.763640107599 70.55754185210571 -0.008276708183553777
-730.1975787869346 69.36183927783441 -0.007970389760746072
-727.8642618405488 68.06398322384484 -0.007617765513148661
-725.736237762264 66.65366836749354 -0.007219136047036667
-723.7866814105023 65.11900575377376 -0.006769517190556573
-721.9873466687732 63.44687147623699 -0.006265246186526879
-720.3099941372434 61.62037241824328 -0.005710142854248895
-718.7258930712683 59.62416427018707 -0.00509964642700092