# OOMMF: rectangular mesh v1.0
# Segment count: 1
# Begin: Segment
# Begin: Header
# Title: 
# meshunit: m
# valueunit: (none)
# valuemultiplier: 1
# xmin: 0
# ymin: 0
# zmin: 0
# xmax: 5e-07
# ymax: 1.25e-07
# zmax: 3e-09
# ValueRangeMaxMag: 592510
# ValueRangeMinMag: 844671
# meshtype: rectangular
# xbase: 1.25e-09
# ybase: 1.25e-09
# zbase: 1.5e-09
# xstepsize: 2.5e-09
# ystepsize: 2.5e-09
# zstepsize: 3e-09
# xnodes: 200
# ynodes: 50
# znodes: 1
# End: Header
# Begin: Data Text
485960.4022010157 485960.4022010157 485960.4022010157
484924.0104324196 484924.0104324196 484924.0104324196
483325.0341454974 483325.0341454974 483325.0341454974
481244.3011014635 481244.3011014635 481244.3011014635
478739.0708125763 478739.0708125763 478739.0708125763
475863.3878726651 475863.3878726651 475863.3878726651
472668.339055604 472668.339055604 472668.339055604
469201.1894853583 469201.1894853583 469201.1894853583
465505.0665738015 465505.0665738015 465505.0665738015
461619.0976151026 461619.0976151026 461619.0976151026
457578.7863176681 457578.7863176681 457578.7863176681
453416.4759871883 453416.4759871883 453416.4759871883
449161.807725848 449161.807725848 449161.807725848
444842.1234981444 444842.1234981444 444842.1234981444
440482.7905209813 440482.7905209813 440482.7905209813
436107.4404284317 436107.4404284317 436107.4404284317
431738.1271570909 431738.1271570909 431738.1271570909
427395.4140577275 427395.4140577275 427395.4140577275
423098.4041554703 423098.4041554703 423098.4041554703
418864.729070587 418864.729070587 418864.729070587
414710.5119425147 414710.5119425147 414710.5119425147
410650.3186193328 410650.3186193328 410650.3186193328
406697.109322804 406697.109322804 406697.109322804
402862.200702842 402862.200702842 402862.200702842
399155.2453887538 399155.2453887538 399155.2453887538
395584.2336898394 395584.2336898394 395584.2336898394
392155.5195163839 392155.5195163839 392155.5195163839
388873.8706173899 388873.8706173899 388873.8706173899
385742.5414308526 385742.5414308526 385742.5414308526
382763.3656776161 382763.3656776161 382763.3656776161
379936.8649679902 379936.8649679902 379936.8649679902
377262.3693045171 377262.3693045171 377262.3693045171
374738.1452757513 374738.1452757513 374738.1452757513
372361.5279188713 372361.5279188713 372361.5279188713
370129.0526351967 370129.0526351967 370129.0526351967
368036.5840208202 368036.5840208202 368036.5840208202
366079.4390619998 366079.4390619998 366079.4390619998
364252.5027412694 364252.5027412694 364252.5027412694
362550.3345991487 362550.3345991487 362550.3345991487
360967.2654040635 360967.2654040635 360967.2654040635
359497.4834260544 359497.4834260544 359497.4834260544
358135.1102887741 358135.1102887741 358135.1102887741
356874.2665279165 356874.2665279165 356874.2665279165
355709.1274416621 355709.1274416621 355709.1274416621
354633.9696725725 354633.9696725725 354633.9696725725
353643.2094103894 353643.2094103894 353643.2094103894
352731.4328872375 352731.4328872375 352731.4328872375
351893.4200257512 351893.4200257512 351893.4200257512
351124.162034188 351124.162034188 351124.162034188
350418.8737572365 350418.8737572365 350418.8737572365
349773.0014444484 349773.0014444484 349773.0014444484
349182.2267338847 349182.2267338847 349182.2267338847
348642.4673684902 348642.4673684902 348642.4673684902
348149.8752833345 348149.8752833345 348149.8752833345
347700.8325236964 347700.8325236964 347700.8325236964
347291.9454721494 347291.9454721494 347291.9454721494
346920.0377046335 346920.0377046335 346920.0377046335
346582.1419122143 346582.1419122143 346582.1419122143
346275.4910302325 346275.4910302325 346275.4910302325
345997.508972803 345997.508972803 345997.508972803
345745.8010013493 345745.8010013493 345745.8010013493
345518.1440690134 345518.1440690134 345518.1440690134
345312.4770936305 345312.4770936305 345312.4770936305
345126.8914378029 345126.8914378029 345126.8914378029
344959.6215302834 344959.6215302834 344959.6215302834
344809.035819884 344809.035819884 344809.035819884
344673.6280047948 344673.6280047948 344673.6280047948
344552.0086685763 344552.0086685763 344552.0086685763
344442.8972568415 344442.8972568415 344442.8972568415
344345.1144838558 344345.1144838558 344345.1144838558
344257.5751184989 344257.5751184989 344257.5751184989
344179.2812061534 344179.2812061534 344179.2812061534
344109.3156504807 344109.3156504807 344109.3156504807
344046.8362371696 344046.8362371696 344046.8362371696
343991.0699935756 343991.0699935756 343991.0699935756
343941.3079550086 343941.3079550086 343941.3079550086
343896.9002518299 343896.9002518299 343896.9002518299
343857.2515776991 343857.2515776991 343857.2515776991
343821.8169318071 343821.8169318071 343821.8169318071
343790.0977128004 343790.0977128004 343790.0977128004
343761.638062874 343761.638062874 343761.638062874
343736.0215305163 343736.0215305163 343736.0215305163
343712.8679426472 343712.8679426472 343712.8679426472
343691.8305662328 343691.8305662328 343691.8305662328
343672.5934558936 343672.5934558936 343672.5934558936
343654.869059034 343654.869059034 343654.869059034
343638.3959782277 343638.3959782277 343638.3959782277
343622.9369663249 343622.9369663249 343622.9369663249
343608.2770616658 343608.2770616658 343608.2770616658
343594.2219210427 343594.2219210427 343594.2219210427
343580.596278878 343580.596278878 343580.596278878
343567.2425842817 343567.2425842817 343567.2425842817
343554.0197498188 343554.0197498188 343554.0197498188
343540.8020543259 343540.8020543259 343540.8020543259
343527.4781459406 343527.4781459406 343527.4781459406
343513.9501894454 343513.9501894454 343513.9501894454
343500.1330893962 343500.1330893962 343500.1330893962
343485.9538584278 343485.9538584278 343485.9538584278
343471.3510532778 343471.3510532778 343471.3510532778
343456.2743288888 343456.2743288888 343456.2743288888
343440.6840721907 343440.6840721907 343440.6840721907
343424.5511351395 343424.5511351395 343424.5511351395
343407.8566449629 343407.8566449629 343407.8566449629
343390.5919135781 343390.5919135781 343390.5919135781
343372.7584086059 343372.7584086059 343372.7584086059
343354.3678285397 343354.3678285397 343354.3678285397
343335.4422379168 343335.4422379168 343335.4422379168
343316.0142967324 343316.0142967324 343316.0142967324
343296.127556728 343296.127556728 343296.127556728
343275.8368455361 343275.8368455361 343275.8368455361
343255.208720015 343255.208720015 343255.208720015
343234.3220054752 343234.3220054752 343234.3220054752
343213.2684099253 343213.2684099253 343213.2684099253
343192.1532185334 343192.1532185334 343192.1532185334
343171.0960675735 343171.0960675735 343171.0960675735
343150.2318049506 343150.2318049506 343150.2318049506
343129.7114219699 343129.7114219699 343129.7114219699
343109.7030851203 343109.7030851203 343109.7030851203
343090.3932292414 343090.3932292414 343090.3932292414
343071.9877684246 343071.9877684246 343071.9877684246
343054.7133655988 343054.7133655988 343054.7133655988
343038.8188047758 343038.8188047758 343038.8188047758
343024.576449981 343024.576449981 343024.576449981
343012.2837999388 343012.2837999388 343012.2837999388
343002.2651302182 343002.2651302182 343002.2651302182
342994.873232141 342994.873232141 342994.873232141
342990.4912444823 342990.4912444823 342990.4912444823
342989.5345815187 342989.5345815187 342989.5345815187
342992.4529589443 342992.4529589443 342992.4529589443
342999.7325125461 342999.7325125461 342999.7325125461
343011.898018592 343011.898018592 343011.898018592
343029.5152112335 343029.5152112335 343029.5152112335
343053.1931911455 343053.1931911455 343053.1931911455
343083.586936468 343083.586936468 343083.586936468
343121.3999152539 343121.3999152539 343121.3999152539
343167.3867793445 343167.3867793445 343167.3867793445
343222.3561672656 343222.3561672656 343222.3561672656
343287.1736023835 343287.1736023835 343287.1736023835
343362.7644682574 343362.7644682574 343362.7644682574
343450.1171021771 343450.1171021771 343450.1171021771
343550.2859566264 343550.2859566264 343550.2859566264
343664.3948742591 343664.3948742591 343664.3948742591
343793.6404328725 343793.6404328725 343793.6404328725
343939.2954016737 343939.2954016737 343939.2954016737
344102.7122719089 344102.7122719089 344102.7122719089
344285.3268912268 344285.3268912268 344285.3268912268
344488.6621854302 344488.6621854302 344488.6621854302
344714.3319710064 344714.3319710064 344714.3319710064
344964.0448727544 344964.0448727544 344964.0448727544
345239.6083269875 345239.6083269875 345239.6083269875
345542.9326992733 345542.9326992733 345542.9326992733
345876.0355078467 345876.0355078467 345876.0355078467
346241.0457286959 346241.0457286959 346241.0457286959
346640.2082634573 346640.2082634573 346640.2082634573
347075.8884758152 347075.8884758152 347075.8884758152
347550.5768653994 347550.5768653994 347550.5768653994
348066.893870596 348066.893870596 348066.893870596
348627.5947699793 348627.5947699793 348627.5947699793
349235.5747054485 349235.5747054485 349235.5747054485
349893.87380416 349893.87380416 349893.87380416
350605.6823667813 350605.6823667813 350605.6823667813
351374.3461261563 351374.3461261563 351374.3461261563
352203.3714770571 352203.3714770571 352203.3714770571
353096.4306591701 353096.4306591701 353096.4306591701
354057.366776625 354057.366776625 354057.366776625
355090.1985307109 355090.1985307109 355090.1985307109
356199.1244905798 356199.1244905798 356199.1244905798
357388.5266995357 357388.5266995357 357388.5266995357
358662.9732797772 358662.9732797772 358662.9732797772
360027.2196762526 360027.2196762526 360027.2196762526
361486.2080380728 361486.2080380728 361486.2080380728
363045.0640412547 363045.0640412547 363045.0640412547
364709.0903717604 364709.0903717604 364709.0903717604
366483.7557349966 366483.7557349966 366483.7557349966
368374.6780850937 368374.6780850937 368374.6780850937
370387.6002529344 370387.6002529344 370387.6002529344
372528.3558332567 372528.3558332567 372528.3558332567
374802.8224962083 374802.8224962083 374802.8224962083
377216.8591930384 377216.8591930384 377216.8591930384
379776.2228391567 379776.2228391567 379776.2228391567
382486.4589137778 382486.4589137778 382486.4589137778
385352.7589650975 385352.7589650975 385352.7589650975
388379.7764284415 388379.7764284415 388379.7764284415
391571.3898793276 391571.3898793276 391571.3898793276
394930.4004552774 394930.4004552774 394930.4004552774
398458.1468900201 398458.1468900201 398458.1468900201
402154.0179316488 402154.0179316488 402154.0179316488
406014.837142302 406014.837142302 406014.837142302
410034.0892472999 410034.0892472999 410034.0892472999
414200.9493244066 414200.9493244066 414200.9493244066
418499.0650110048 418499.0650110048 418499.0650110048
422905.0237151171 422905.0237151171 422905.0237151171
427386.4040442072 427386.4040442072 427386.4040442072
431899.2445447512 431899.2445447512 431899.2445447512
436384.6194413365 436384.6194413365 436384.6194413365
440763.6832700399 440763.6832700399 440763.6832700399
444929.76427337 444929.76427337 444929.76427337
448734.1201663757 448734.1201663757 448734.1201663757
451956.2462972634 451956.2462972634 451956.2462972634
454219.9310758765 454219.9310758765 454219.9310758765
486609.8166491867 486609.8166491867 486609.8166491867
485783.9263944636 485783.9263944636 485783.9263944636
484408.5923132059 484408.5923132059 484408.5923132059
482544.4822437559 482544.4822437559 482544.4822437559
480241.5535417642 480241.5535417642 480241.5535417642
477549.5210989482 477549.5210989482 477549.5210989482
474516.8363502807 474516.8363502807 474516.8363502807
471189.3581391182 471189.3581391182 471189.3581391182
467609.7088512297 467609.7088512297 467609.7088512297
463817.1685086757 463817.1685086757 463817.1685086757
459847.8736070785 459847.8736070785 459847.8736070785
455735.1506689088 455735.1506689088 455735.1506689088
451509.8786048727 451509.8786048727 451509.8786048727
447200.8193600747 447200.8193600747 447200.8193600747
442834.8860812049 442834.8860812049 442834.8860812049
438437.3371341516 438437.3371341516 438437.3371341516
434031.8966468861 434031.8966468861 434031.8966468861
429640.8097205252 429640.8097205252 429640.8097205252
425284.845088152 425284.845088152 425284.845088152
420983.2598465027 420983.2598465027 420983.2598465027
416753.7414613782 416753.7414613782 416753.7414613782
412612.34111554 412612.34111554 412612.34111554
408573.4108181839 408573.4108181839 408573.4108181839
404649.5540643194 404649.5540643194 404649.5540643194
400851.5973555709 400851.5973555709 400851.5973555709
397188.586962823 397188.586962823 397188.586962823
393667.8129870491 393667.8129870491 393667.8129870491
390294.8603643327 390294.8603643327 390294.8603643327
387073.6849153502 387073.6849153502 387073.6849153502
384006.7110308992 384006.7110308992 384006.7110308992
381094.9469711379 381094.9469711379 381094.9469711379
378338.1130987163 378338.1130987163 378338.1130987163
375734.7786180244 375734.7786180244 375734.7786180244
373282.5022796021 373282.5022796021 373282.5022796021
370977.9732954372 370977.9732954372 370977.9732954372
368817.1489249944 368817.1489249944 368817.1489249944
366795.3861591474 366795.3861591474 366795.3861591474
364907.5651954829 364907.5651954829 364907.5651954829
363148.203423485 363148.203423485 363148.203423485
361511.5587099886 361511.5587099886 361511.5587099886
359991.7217633582 359991.7217633582 359991.7217633582
358582.6972348373 358582.6972348373 358582.6972348373
357278.4740640884 357278.4740640884 357278.4740640884
356073.0852720246 356073.0852720246 356073.0852720246
354960.6581269331 354960.6581269331 354960.6581269331
353935.4552005663 353935.4552005663 353935.4552005663
352991.9074004232 352991.9074004232 352991.9074004232
352124.6395839926 352124.6395839926 352124.6395839926
351328.489875062 351328.489875062 351328.489875062
350598.5232549545 350598.5232549545 350598.5232549545
349930.0404552864 349930.0404552864 349930.0404552864
349318.5826343875 349318.5826343875 349318.5826343875
348759.9327568504 348759.9327568504 348759.9327568504
348250.1139973745 348250.1139973745 348250.1139973745
347785.3859917419 347785.3859917419 347785.3859917419
347362.2390999572 347362.2390999572 347362.2390999572
346977.3873998972 346977.3873998972 346977.3873998972
346627.7604398448 346627.7604398448 346627.7604398448
346310.4943707504 346310.4943707504 346310.4943707504
346022.9223980116 346022.9223980116 346022.9223980116
345762.5650705096 345762.5650705096 345762.5650705096
345527.1202676759 345527.1202676759 345527.1202676759
345314.4533448117 345314.4533448117 345314.4533448117
345122.5872448242 345122.5872448242 345122.5872448242
344949.6929448186 344949.6929448186 344949.6929448186
344794.0800485043 344794.0800485043 344794.0800485043
344654.1878398056 344654.1878398056 344654.1878398056
344528.5765624679 344528.5765624679 344528.5765624679
344415.9192201347 344415.9192201347 344415.9192201347
344314.9936599447 344314.9936599447 344314.9936599447
344224.6751923735 344224.6751923735 344224.6751923735
344143.9295016721 344143.9295016721 344143.9295016721
344071.8060994403 344071.8060994403 344071.8060994403
344007.4320437007 344007.4320437007 344007.4320437007
343950.0061981297 343950.0061981297 343950.0061981297
343898.793724765 343898.793724765 343898.793724765
343853.1210845556 343853.1210845556 343853.1210845556
343812.3712531913 343812.3712531913 343812.3712531913
343775.9793994889 343775.9793994889 343775.9793994889
343743.4287569528 343743.4287569528 343743.4287569528
343714.2469165248 343714.2469165248 343714.2469165248
343688.002283984 343688.002283984 343688.002283984
343664.3009196235 343664.3009196235 343664.3009196235
343642.7835187315 343642.7835187315 343642.7835187315
343623.1227398738 343623.1227398738 343623.1227398738
343605.0206428918 343605.0206428918 343605.0206428918
343588.2064455097 343588.2064455097 343588.2064455097
343572.434375994 343572.434375994 343572.434375994
343557.4817995323 343557.4817995323 343557.4817995323
343543.1474319978 343543.1474319978 343543.1474319978
343529.2498011247 343529.2498011247 343529.2498011247
343515.6257774718 343515.6257774718 343515.6257774718
343502.129328467 343502.129328467 343502.129328467
343488.6303316634 343488.6303316634 343488.6303316634
343475.0135894342 343475.0135894342 343475.0135894342
343461.1778963541 343461.1778963541 343461.1778963541
343447.0352855167 343447.0352855167 343447.0352855167
343432.5103222046 343432.5103222046 343432.5103222046
343417.5395696686 343417.5395696686 343417.5395696686
343402.0710813522 343402.0710813522 343402.0710813522
343386.0640635471 343386.0640635471 343386.0640635471
343369.48856407 343369.48856407 343369.48856407
343352.3253108168 343352.3253108168 343352.3253108168
343334.5655830739 343334.5655830739 343334.5655830739
343316.2112232433 343316.2112232433 343316.2112232433
343297.27467921 343297.27467921 343297.27467921
343277.7791766456 343277.7791766456 343277.7791766456
343257.7589380521 343257.7589380521 343257.7589380521
343237.2595118972 343237.2595118972 343237.2595118972
343216.3381553325 343216.3381553325 343216.3381553325
343195.06432681 343195.06432681 343195.06432681
343173.5202323907 343173.5202323907 343173.5202323907
343151.8014810514 343151.8014810514 343151.8014810514
343130.0178002761 343130.0178002761 343130.0178002761
343108.2938525508 343108.2938525508 343108.2938525508
343086.7701224285 343086.7701224285 343086.7701224285
343065.6039047663 343065.6039047663 343065.6039047663
343044.9703620148 343044.9703620148 343044.9703620148
343025.0636929136 343025.0636929136 343025.0636929136
343006.0983657725 343006.0983657725 343006.0983657725
342988.3104665292 342988.3104665292 342988.3104665292
342971.9591226346 342971.9591226346 342971.9591226346
342957.3280307268 342957.3280307268 342957.3280307268
342944.7270789695 342944.7270789695 342944.7270789695
342934.494059774 342934.494059774 342934.494059774
342926.9964888836 342926.9964888836 342926.9964888836
342922.6335223009 342922.6335223009 342922.6335223009
342921.8379651779 342921.8379651779 342921.8379651779
342925.0783951935 342925.0783951935 342925.0783951935
342932.861372014 342932.861372014 342932.861372014
342945.7337633657 342945.7337633657 342945.7337633657
342964.2851629484 342964.2851629484 342964.2851629484
342989.1504099887 342989.1504099887 342989.1504099887
343021.0122217517 343021.0122217517 343021.0122217517
343060.6039139929 343060.6039139929 343060.6039139929
343108.7122272542 343108.7122272542 343108.7122272542
343166.1802571669 343166.1802571669 343166.1802571669
343233.91047689 343233.91047689 343233.91047689
343312.8678607558 343312.8678607558 343312.8678607558
343404.0831108868 343404.0831108868 343404.0831108868
343508.6559659217 343508.6559659217 343508.6559659217
343627.7586122925 343627.7586122925 343627.7586122925
343762.6392048547 343762.6392048547 343762.6392048547
343914.625447874 343914.625447874 343914.625447874
344085.1283009574 344085.1283009574 344085.1283009574
344275.6457590187 344275.6457590187 344275.6457590187
344487.7667362118 344487.7667362118 344487.7667362118
344723.1750361061 344723.1750361061 344723.1750361061
344983.6534247405 344983.6534247405 344983.6534247405
345271.0877932975 345271.0877932975 345271.0877932975
345587.471426385 345587.471426385 345587.471426385
345934.9093670691 345934.9093670691 345934.9093670691
346315.6228848547 346315.6228848547 346315.6228848547
346731.9540513869 346731.9540513869 346731.9540513869
347186.3704134824 347186.3704134824 347186.3704134824
347681.4697884155 347681.4697884155 347681.4697884155
348219.9851414209 348219.9851414209 348219.9851414209
348804.7895654988 348804.7895654988 348804.7895654988
349438.9013524161 349438.9013524161 349438.9013524161
350125.4891223469 350125.4891223469 350125.4891223469
350867.8769910481 350867.8769910481 350867.8769910481
351669.5497231592 351669.5497231592 351669.5497231592
352534.1578450549 352534.1578450549 352534.1578450549
353465.5225915437 353465.5225915437 353465.5225915437
354467.6406035207 354467.6406035207 354467.6406035207
355544.6882271948 355544.6882271948 355544.6882271948
356701.0252074508 356701.0252074508 356701.0252074508
357941.1975219142 357941.1975219142 357941.1975219142
359269.9390213215 359269.9390213215 359269.9390213215
360692.1714325849 360692.1714325849 360692.1714325849
362213.0021617782 362213.0021617782 362213.0021617782
363837.7191869651 363837.7191869651 363837.7191869651
365571.7820957972 365571.7820957972 365571.7820957972
367420.808118596 367420.808118596 367420.808118596
369390.5516708522 369390.5516708522 369390.5516708522
371486.8755104763 371486.8755104763 371486.8755104763
373715.7111904146 373715.7111904146 373715.7111904146
376083.0058241644 376083.0058241644 376083.0058241644
378594.6514929316 378594.6514929316 378594.6514929316
381256.3926878395 381256.3926878395 381256.3926878395
384073.7061245014 384073.7061245014 384073.7061245014
387051.6458991651 387051.6458991651 387051.6458991651
390194.6454137406 390194.6454137406 390194.6454137406
393506.2656234994 393506.2656234994 393506.2656234994
396988.8770363638 396988.8770363638 396988.8770363638
400643.2604430208 400643.2604430208 400643.2604430208
404468.1087578281 404468.1087578281 404468.1087578281
408459.4095209638 408459.4095209638 408459.4095209638
412609.6848593387 412609.6848593387 412609.6848593387
416907.0630721749 416907.0630721749 416907.0630721749
421334.1535451713 421334.1535451713 421334.1535451713
425866.6940772177 425866.6940772177 425866.6940772177
430471.9349279287 430471.9349279287 430471.9349279287
435106.7114385705 435106.7114385705 435106.7114385705
439715.1185132663 439715.1185132663 439715.1185132663
444225.5719709625 444225.5719709625 444225.5719709625
448546.5491849812 448546.5491849812 448546.5491849812
452558.0009732295 452558.0009732295 452558.0009732295
456082.3155603491 456082.3155603491 456082.3155603491
458729.4183847997 458729.4183847997 458729.4183847997
487182.138025708 487182.138025708 487182.138025708
486602.3949523132 486602.3949523132 486602.3949523132
485523.2621972238 485523.2621972238 485523.2621972238
483952.3621715875 483952.3621715875 483952.3621715875
481922.9080625232 481922.9080625232 481922.9080625232
479478.5110737558 479478.5110737558 479478.5110737558
476664.9559871761 476664.9559871761 476664.9559871761
473526.9072175014 473526.9072175014 473526.9072175014
470106.6717233749 470106.6717233749 470106.6717233749
466443.8520418672 466443.8520418672 466443.8520418672
462575.4033337673 462575.4033337673 462575.4033337673
458535.8620349038 458535.8620349038 458535.8620349038
454357.6232520643 454357.6232520643 454357.6232520643
450071.2002018047 450071.2002018047 450071.2002018047
445705.4313695878 445705.4313695878 445705.4313695878
441287.6213129389 441287.6213129389 441287.6213129389
436843.6138993857 436843.6138993857 436843.6138993857
432397.8051179835 432397.8051179835 432397.8051179835
427973.1074518731 427973.1074518731 427973.1074518731
423590.8804291739 423590.8804291739 423590.8804291739
419270.8424686314 419270.8424686314 419270.8424686314
415030.978497114 415030.978497114 415030.978497114
410887.4557599971 410887.4557599971 410887.4557599971
406854.5580413433 406854.5580413433 406854.5580413433
402944.6453359034 402944.6453359034 402944.6453359034
399168.1434895035 399168.1434895035 399168.1434895035
395533.5652654928 395533.5652654928 395533.5652654928
392047.562343377 392047.562343377 392047.562343377
388715.0054935743 388715.0054935743 388715.0054935743
385539.0892425504 385539.0892425504 385539.0892425504
382521.4560463282 382521.4560463282 382521.4560463282
379662.3350755603 379662.3350755603 379662.3350755603
376960.6902220409 376960.6902220409 376960.6902220409
374414.3727454152 374414.3727454152 374414.3727454152
372020.273940259 372020.273940259 372020.273940259
369774.4744377877 369774.4744377877 369774.4744377877
367672.3868174024 367672.3868174024 367672.3868174024
365708.8895841819 365708.8895841819 365708.8895841819
363878.4505166763 363878.4505166763 363878.4505166763
362175.2387667781 362175.2387667781 362175.2387667781
360593.2247929206 360593.2247929206 360593.2247929206
359126.2684584543 359126.2684584543 359126.2684584543
357768.1951847841 357768.1951847841 357768.1951847841
356512.8610642791 356512.8610642791 356512.8610642791
355354.2072662241 355354.2072662241 355354.2072662241
354286.3049902752 354286.3049902752 354286.3049902752
353303.3914119013 353303.3914119013 353303.3914119013
352399.8980455947 352399.8980455947 352399.8980455947
351570.4719516922 351570.4719516922 351570.4719516922
350809.9911671389 350809.9911671389 350809.9911671389
350113.5747031576 350113.5747031576 350113.5747031576
349476.5884007558 349476.5884007558 349476.5884007558
348894.6468375084 348894.6468375084 348894.6468375084
348363.6124241402 348363.6124241402 348363.6124241402
347879.5917782312 347879.5917782312 347879.5917782312
347438.9303529681 347438.9303529681 347438.9303529681
347038.2052584936 347038.2052584936 347038.2052584936
346674.2171691677 346674.2171691677 346674.2171691677
346343.981106915 346343.981106915 346343.981106915
346044.7168987923 346044.7168987923 346044.7168987923
345773.8390049178 345773.8390049178 345773.8390049178
345528.946439845 345528.946439845 345528.946439845
345307.8123956397 345307.8123956397 345307.8123956397
345108.374233857 345108.374233857 345108.374233857
344928.7234064939 344928.7234064939 344928.7234064939
344767.0959063552 344767.0959063552 344767.0959063552
344621.8627897 344621.8627897 344621.8627897
344491.5213230166 344491.5213230166 344491.5213230166
344374.6862717441 344374.6862717441 344374.6862717441
344270.0818604134 344270.0818604134 344270.0818604134
344176.5339090427 344176.5339090427 344176.5339090427
344092.9626394334 344092.9626394334 344092.9626394334
344018.3756705853 344018.3756705853 344018.3756705853
343951.8616703194 343951.8616703194 343951.8616703194
343892.5841763827 343892.5841763827 343892.5841763827
343839.7760462643 343839.7760462643 343839.7760462643
343792.7340604224 343792.7340604224 343792.7340604224
343750.8141093201 343750.8141093201 343750.8141093201
343713.4265130855 343713.4265130855 343713.4265130855
343680.0318786933 343680.0318786933 343680.0318786933
343650.1370684612 343650.1370684612 343650.1370684612
343623.2916610301 343623.2916610301 343623.2916610301
343599.0844952638 343599.0844952638 343599.0844952638
343577.140669475 343577.140669475 343577.140669475
343557.1186026416 343557.1186026416 343557.1186026416
343538.7075026535 343538.7075026535 343538.7075026535
343521.6248850561 343521.6248850561 343521.6248850561
343505.6144583898 343505.6144583898 343505.6144583898
343490.4440458703 343490.4440458703 343490.4440458703
343475.9038362856 343475.9038362856 343475.9038362856
343461.8046627081 343461.8046627081 343461.8046627081
343447.9765777478 343447.9765777478 343447.9765777478
343434.2674463989 343434.2674463989 343434.2674463989
343420.5418072864 343420.5418072864 343420.5418072864
343406.6797485478 343406.6797485478 343406.6797485478
343392.5760240995 343392.5760240995 343392.5760240995
343378.1391832287 343378.1391832287 343378.1391832287
343363.2909157302 343363.2909157302 343363.2909157302
343347.965408331 343347.965408331 343347.965408331
343332.1089090696 343332.1089090696 343332.1089090696
343315.6792842658 343315.6792842658 343315.6792842658
343298.6457821376 343298.6457821376 343298.6457821376
343280.9887871956 343280.9887871956 343280.9887871956
343262.6997647553 343262.6997647553 343262.6997647553
343243.7812034201 343243.7812034201 343243.7812034201
343224.2467308508 343224.2467308508 343224.2467308508
343204.1212432148 343204.1212432148 343204.1212432148
343183.4411826701 343183.4411826701 343183.4411826701
343162.2548473923 343162.2548473923 343162.2548473923
343140.6228368424 343140.6228368424 343140.6228368424
343118.6185364848 343118.6185364848 343118.6185364848
343096.3287304948 343096.3287304948 343096.3287304948
343073.8542644512 343073.8542644512 343073.8542644512
343051.3108266629 343051.3108266629 343051.3108266629
343028.8297922869 343028.8297922869 343028.8297922869
343006.5591791333 343006.5591791333 343006.5591791333
342984.6646719771 342984.6646719771 342984.6646719771
342963.3307673278 342963.3307673278 342963.3307673278
342942.7619766886 342942.7619766886 342942.7619766886
342923.1841629583 342923.1841629583 342923.1841629583
342904.8459383355 342904.8459383355 342904.8459383355
342888.0201933688 342888.0201933688 342888.0201933688
342873.0056975974 342873.0056975974 342873.0056975974
342860.1288228489 342860.1288228489 342860.1288228489
342849.7453564832 342849.7453564832 342849.7453564832
342842.2424294627 342842.2424294627 342842.2424294627
342838.0405331566 342838.0405331566 342838.0405331566
342837.5956688255 342837.5956688255 342837.5956688255
342841.4015760486 342841.4015760486 342841.4015760486
342849.9920953689 342849.9920953689 342849.9920953689
342863.9436109194 342863.9436109194 342863.9436109194
342883.8776325139 342883.8776325139 342883.8776325139
342910.463465467 342910.463465467 342910.463465467
342944.4209934177 342944.4209934177 342944.4209934177
342986.5235705136 342986.5235705136 342986.5235705136
343037.601029336 343037.601029336 343037.601029336
343098.542774702 343098.542774702 343098.542774702
343170.3010077154 343170.3010077154 343170.3010077154
343253.894032526 343253.894032526 343253.894032526
343350.4096821231 343350.4096821231 343350.4096821231
343461.0088334487 343461.0088334487 343461.0088334487
343586.9290358547 343586.9290358547 343586.9290358547
343729.4882217043 343729.4882217043 343729.4882217043
343890.0885377867 343890.0885377867 343890.0885377867
344070.2202452528 344070.2202452528 344070.2202452528
344271.465745498 344271.465745498 344271.465745498
344495.5036717074 344495.5036717074 344495.5036717074
344744.1131038489 344744.1131038489 344744.1131038489
345019.177857698 345019.177857698 345019.177857698
345322.6908771661 345322.6908771661 345322.6908771661