# OOMMF: rectangular mesh v1.0
# Segment count: 1
# Begin: Segment
# Begin: Header
# Title: Oxs_TimeDriver::Magnetization
# Desc: Oxs vector field output
# Desc:  MIF source file: F:/testOOMMF/standartproblem4/OOMMF/stdprob4_RK.mif
# Desc:  Iteration: 1052, State id: 28028
# Desc:  Stage: 0, Stage iteration: 1052
# Desc:  Stage simulation time: 6.2013e-010 s
# Desc:  Total simulation time: 6.2013e-010 s
# meshunit: m
# valueunit: A/m
# valuemultiplier: 1.0
# xmin: 0
# ymin: 0
# zmin: 0
# xmax: 5e-007
# ymax: 1.25e-007
# zmax: 3e-009
# ValueRangeMaxMag: 800000.0000000004
# ValueRangeMinMag: 799199.9999999997
# meshtype: rectangular
# xbase: 1.25e-009
# ybase: 1.25e-009
# zbase: 1.5e-009
# xstepsize: 2.5e-009
# ystepsize: 2.5e-009
# zstepsize: 3e-009
# xnodes: 200
# ynodes: 50
# znodes: 1
# End: Header
# Begin: Data Text
611043.47683628812 516358.27621506003 -0.18050470060821286
622458.88717749564 502538.48984303931 -0.17673219817161398
635999.05798250274 485288.7781984444 -0.17348492491795356
649766.68682167982 466693.96042454592 -0.17148821097748873
663096.74466721877 447551.90448897454 -0.1707430043722846
675716.43018299853 428260.79201897018 -0.17103659157843662
687517.36409059458 409047.52055707586 -0.17210989225736073
698469.43460541137 390051.85414501827 -0.1737157511727436
708581.95058784471 371364.53694596922 -0.17563935327009825
717884.27270619164 353046.98129437509 -0.17769950408683874
726415.57212438143 335142.38254087674 -0.17974775471244955
734219.2525342044 317682.37157274125 -0.18166171013942733
741339.89799312735 300691.12997144717 -0.18334330556327813
747821.63920560596 284187.95881565119 -0.18471241753517118
753707.32884691819 268188.85592509084 -0.18570731021970621
759038.17504184716 252707.4372255544 -0.1862791116693103
763853.62511371775 237755.41928754706 -0.18639412695236568
768191.3747280899 223342.81227147824 -0.18602844881502634
772087.42831670132 209477.92970923817 -0.18517149740186625
775576.16838410997 196167.29348846312 -0.18382011652167218
778690.41182523174 183415.49152516501 -0.18198296305283518
781461.44440203113 171225.03004251164 -0.17967373385894794
783919.03277101647 159596.2094140175 -0.17691631351290074
786091.41812626203 148527.04248119984 -0.17373701374581108
788005.2979699641 138013.22534901893 -0.17017057214671785
789685.80309451872 128048.16434036614 -0.16625141627356405
791156.47649081703 118623.0572300715 -0.16202068407694048
792439.25971082586 109727.0234214589 -0.15751656574409276
793554.49078191281 101347.27504889092 -0.15278251626475434
794520.9161852306 93469.319801526333 -0.14785671240260045
795355.71795632644 86077.185793658398 -0.14278158473679031
796074.55571282224 79153.659085436841 -0.13759238825975331
796691.62242235756 72680.525328412055 -0.13232812484545586
797219.71203945822 66638.808030360815 -0.12701918798698364
797670.29669833858 61008.997411610013 -0.12169969615736725
798053.61098104692 55771.265003569235 -0.1163941488675601
798378.74077247106 50905.6606140316 -0.11113115459267636
798653.71437461441 46392.289398354304 -0.10592902965371995
798885.59380337596 42211.467795105462 -0.1008108826145126
799080.56449133146 38343.85807669568 -0.095789095940394267
799244.02195963275 34770.581844160966 -0.090881718341600762
799380.65434438398 31473.313456597112 -0.086095787754198461
799494.51998184528 28434.354555574337 -0.081444977989100484
799589.11951603787 25636.691509660537 -0.076931745535901846
799667.46225579968 23064.037143658563 -0.072566173946809295
799732.12667939113 20700.858843384907 -0.068346951458824107
799785.31516313821 18532.394594212787 -0.064281353695176152
799828.90312182601 16544.658682877456 -0.060365082075214696
799864.48283736478 14724.438709570317 -0.056603321082823163
799893.40231418703 13059.285364489593 -0.052989487870799351
799916.79953673435 11537.496214754921 -0.049527294086914836
799935.63251700252 10148.09487643039 -0.046208474965033879
799950.70552911644 8880.8064648899635 -0.043035777801814744
799962.69191466481 7726.0303287761453 -0.039999754122382394
799972.15382786747 6674.8108588431114 -0.037102588056385714
799979.55926764139 5718.807038993381 -0.034334047990829515
799985.29671847285 4850.2612564565279 -0.031696058972066517
799989.68769355048 4061.9679927972011 -0.029177921178750683
799992.99744890048 3347.2425551020328 -0.026781521452296602
799995.44410681236 2699.8904317017923 -0.024495934907014651
799997.20640428539 2114.1772249872561 -0.022323162468825201
799998.43025472655 1584.7996633776452 -0.02025223931682316
799999.23429115501 1106.8575180948817 -0.018285378099015079
799999.71453626617 675.82682113363353 -0.016411713678648882
799999.9483275474 287.53420869155218 -0.014633725662056174
799999.99760776688 -61.867382242626945 -0.012940753331112366
799999.91167675168 -375.9217865972368 -0.011335566583665004
799999.72948682168 -657.89133726974671 -0.0098077877298949952
799999.48155270482 -910.77736211586341 -0.0083604769151784109
799999.19153650547 -1137.3394117244068 -0.0069835988429519155
799998.87755945907 -1340.1132808827547 -0.0056804873974993465
799998.55328451726 -1521.4278423571243 -0.0044414951358638247
799998.22880704293 -1683.4208013127243 -0.003270202050088866
799997.91138544353 -1828.0533165499653 -0.0021573840948891946
799997.60603828751 -1957.1236571339491 -0.0011068328074762658
799997.31603062118 -2072.2798562155217 -0.00010977605248542534
799997.04326833051 -2175.0314777578028 0.00082982138566684818
799996.78861665179 -2266.7604734665297 0.0017202562063491312
799996.55215589493 -2348.7312916439373 0.0025574300604340886
799996.33338583319 -2422.1001677524609 0.0033491442326430763
799996.13138779835 -2487.9237441233231 0.0040912060717535111
799995.94495251041 -2547.1669635108033 0.0047909041590466928
799995.77267970855 -2600.7104021722612 0.0054439890889603016
799995.61305530148 -2649.3569544641095 0.0060572215568670687
799995.46451008471 -2693.8380229234226 0.0066263303178568629
799995.32546401245 -2734.8191400284886 0.0071575348094366272
799995.19435863721 -2772.9051708130032 0.0076465736002836356
799995.06968056923 -2808.6450079743354 0.008099113177173661
799994.94997761631 -2842.5358943981778 0.0085109298923798961
799994.83386951068 -2875.0273205404001 0.0088871272637396758
799994.7200543423 -2906.524586889785 0.0092235434828185046
799994.60731201968 -2937.3919873411851 0.0095247108405099729
799994.49450542312 -2967.9556958324088 0.0097865494114684932
799994.38058013888 -2998.5063281321841 0.010013013840569547
799994.26456319808 -3029.3012375245376 0.010200122140958449
799994.14556148998 -3060.5665066287052 0.010351246914117788
799994.02275991091 -3092.4987332482651 0.010462516305930222
799993.89541999076 -3125.2665083999468 0.010536718588451623
799993.76287881972 -3159.011710430404 0.010570100599025738
799993.62454875454 -3193.850551683051 0.010564866282339757
799993.47991796245 -3229.8744168522935 0.010517386374037548
799993.32855195936 -3267.1504949458704 0.01042928291848628
799993.17009625677 -3305.7222117719639 0.010297052739663533
799993.00428027706 -3345.609453675369 0.010121740999653097
799992.83092243853 -3386.8086308969641 0.0098999702078638539
799992.64993675135 -3429.2925180574239 0.0096322163873763609
799992.46134069934 -3473.0099408658016 0.0093152252066851602
799992.26526466862 -3517.8852602220568 0.0089489141611350607
799992.06196278974 -3563.8176894612884 0.0085301479364583571
799991.85182531481 -3610.6804210976534 0.0080582991536505277
799991.63539240893 -3658.3195840006815 0.0075303463230111476
799991.41336939961 -3706.5530119312075 0.0069451339872900501
799991.18664335751 -3755.1688314782359 0.0062997488066282737
799990.95630086842 -3803.9238717291332 0.0055925273795415023
799990.72364685789 -3852.5418851813415 0.0048206589545768666
799990.49022424361 -3900.7115728358231 0.0039819957622214616
799990.25783395907 -3948.0844413373579 0.0030738247541072109
799990.02855520218 -3994.2724302158827 0.0020935409594647191
799989.8047649567 -4038.8453951982874 0.0010385253943265107
799989.5891567379 -4081.3283173302025 -9.4253294800126402e-005
799989.38475704426 -4121.1983749773153 -0.0013073219402949074
799989.19493901019 -4157.8817725406152 -0.0026041037890565367
799989.0234317974 -4190.7503670948363 -0.0039870332649791429
799988.87432436831 -4219.1180630449617 -0.0054598874341276688
799988.75206169218 -4242.2370014236412 -0.0070250056262917849
799988.66143139976 -4259.2935091885065 -0.0086864772449516073
799988.60753822909 -4269.4038278209518 -0.010446541297180863
799988.59576337796 -4271.6095957447169 -0.012309555015519591
799988.63170516212 -4264.873093313101 -0.014277649436927055
799988.72109688947 -4248.0722408009879 -0.016355402680120416
799988.86969714053 -4219.9953425156064 -0.018544828134534268
799989.08314692427 -4179.3355624049373 -0.020850676314547071
799989.36678704538 -4124.6851591135 -0.023274831987849447
799989.72542848263 -4054.5294252601652 -0.025822169260330249
799990.16306703712 -3967.240347466583 -0.02849443317731885
799990.68253227766 -3861.069999325327 -0.031296573947876848
799991.28505968256 -3734.1436175364879 -0.034230187314167507
799991.96977302269 -3584.4523539843826 -0.037300255532758307
799992.73306193703 -3409.8457575874918 -0.040508219198927616
799993.56783851411 -3208.0238469646324 -0.043859054711118568
799994.46265315532 -2976.5288990998852 -0.047354048192740347
799995.40064869134 -2712.7367983497247 -0.050998141775201906
799996.35832770099 -2413.8480510608692 -0.054792477896122398
799997.30410575122 -2076.8783129111066 -0.058741949515147572
799998.19661873323 -1698.64851299768 -0.062847580601079062
799998.98274908552 -1275.7744408448912 -0.067114218426494163
799999.59533052181 -804.65582458962888 -0.071542813343595621
799999.95048596815 -281.46481628311352 -0.076138194601462733
799999.94454733469 297.86616925982634 -0.080901309620821246
799999.45049904217 937.65730594771355 -0.085837028265821833
799998.31387957721 1642.495000046915 -0.090946398902560857
799996.34806652647 2417.2464110145024 -0.096234429692448317
799993.32886089326 3267.0748470745511 -0.10170241573222523
799988.98827431991 4197.4563509764866 -0.10735564973236035
799983.00741087017 5214.1973348630872 -0.11319587159737658
799975.00831889594 6323.4535791872586 -0.119228864861915
799964.54467155738 7531.7506870700772 -0.12545707716668145
799951.09111482545 8846.0061147947454 -0.13188706305200215
799934.03109818813 10273.552987342604 -0.13852232108206614
799912.64297655318 11822.165886344224 -0.14537054812256017
799886.08414184314 13500.088748050024 -0.15243673639112768
799853.37290475855 15316.065188416556 -0.15973020932617907
799813.36780961009 17279.371314412547 -0.16725801970232113
799764.74401323369 19399.851376140879 -0.17503174278320721
799705.96630755067 21687.956383049252 -0.1830612152086602
799635.25830071815 24154.785908956354 -0.19136106737433145
799550.56720180437 26812.133209293926 -0.19994484225913348
799449.52356928575 29672.533845262587 -0.20883125658034951
799329.39529827726 32749.317734003154 -0.21803873938876425
799187.03501401865 36056.664646773825 -0.22759142099411755
799018.8199311269 39609.662909609731 -0.23751413411662009
798820.58312453632 43424.37076705147 -0.2478381418070856
798587.53502862237 47517.87975953897 -0.25859665016617228
798314.17387580918 51908.378792940035 -0.26983030389779877
797994.18367272988 56615.217251319184 -0.28158327220195023
797620.31826526241 61658.964395577699 -0.29390856560013451
797184.27002608334 67061.461532587869 -0.30686478074115653
796676.52182550915 72845.861734942489 -0.32052133254306442
796086.1812422208 79036.649948398845 -0.33495598731700926
795400.79654894944 85659.633720754515 -0.35026017199338066
794606.15504938341 92741.891060624941 -0.36653750503403554
793686.0660858358 100311.65685523622 -0.38390945963164885
792622.13378521497 108398.12283250492 -0.40251524288931501
791393.52904007898 117031.11634651371 -0.42251828002928965
789976.77696554339 126240.61095754817 -0.44410802125701104
788345.58657059819 136056.00366922776 -0.46750799367489154
786470.76531460253 146505.06921339134 -0.49298041066663362
784320.28564089804 157612.46629600337 -0.52083680642088859
781859.60783611343 169397.61991850636 -0.55144641160037122
779052.42084713571 181871.72834686289 -0.58525001783862707
775862.05126580573 195033.52892574191 -0.62277165599596485
772253.92979919421 208863.27563566374 -0.66463267021901751
768199.72687540168 223314.08291474072 -0.71155794055976074
763684.13445994712 238299.27144995029 -0.76436938885319783
758715.89430454187 253673.39578477805 -0.82394053440975445
753345.78677029524 269202.75918840576 -0.89106860704438007
747696.398601408 284517.3026681348 -0.96615225732732934
742012.71976859809 299026.96149429213 -1.048403986878129
736752.43559681997 311762.48754599754 -1.1337681699753579
732781.28683643369 320985.33558541391 -1.2080843445691403
601756.73074153601 527151.62620182335 -0.1783712282016949
613216.09103135555 513776.24088721152 -0.17359769229507763
627226.72860761406 496574.89960746275 -0.16979272059894848
641548.12777622312 477928.86473490484 -0.16756544897807721
655434.72518229869 458699.59780359169 -0.1667603973053074
668598.37308011309 439290.58209185163 -0.16707858925061064
680927.62977393996 419925.66367205529 -0.16821568498844644
692390.94759835687 400742.77995220403 -0.16990412904636515
702996.12151055224 381833.01735325524 -0.17191664338798102
712770.89245285245 363259.76225276297 -0.17406880958687673
721752.88926875836 345069.22034885769 -0.1762074853118647
729984.18859838147 327296.63059116685 -0.17821176536032685
737508.33707394556 309970.08363129315 -0.17998034966893631
744368.74734676071 293112.8928815336 -0.18143621067161186
750607.8760305756 276745.03869235783 -0.18251420550106387
756266.844165246 260883.99800736329 -0.18316944241491065
761385.2987839164 245545.16243594073 -0.18336422523624804
766001.39458506019 230741.98467922874 -0.18307939895222411
770151.82349730108 216485.95511891515 -0.1822996541275419
773871.85122979619 202786.48346015392 -0.18102738606529245
777195.33978941943 189650.74165311595 -0.17926570412169546
780154.74808124825 177083.5086795291 -0.17703469780340869
782781.11072217196 165087.04581684369 -0.17435179281781535
785104.00003620551 153661.02019419364 -0.17125057042325628
787151.47835632355 142802.48639791316 -0.16775830204953412
788950.04841033206 132505.9285968286 -0.16391759876218695
790524.60888426483 122763.36077329799 -0.1597610406735703
791898.42103013129 113564.47846910989 -0.15533596115587694
793093.09046921565 104896.8533844824 -0.15067610240742008
794128.56668204721 96746.160541366815 -0.14582980088980393
795023.16102551774 89096.427722853856 -0.14082857947714633
795793.58281331137 81930.296918385269 -0.13571893274808089
796454.99187520973 75229.288957445577 -0.13052774008527204
797021.06534790946 68974.063180793717 -0.12529777655880472
797504.07594550087 63144.666047881226 -0.12004981849424959
797914.97884347744 57720.763484207302 -0.11482194097059703
798263.50429428625 52681.853723971471 -0.10962819603090977
798558.25333312165 48007.458103329147 -0.10450170581963462
798806.79417526769 43677.289057605849 -0.099449819788884772
799015.75731895515 39671.394681904472 -0.094500974036532126
799190.92768729501 35970.280820601402 -0.089656272944802926
799337.33256828901 32555.011328596662 -0.084940052782515776
799459.32441101817 29407.288420934081 -0.080347882318430347
799560.65789123473 26509.514377486747 -0.075900738132251261
799644.56088526582 23844.83689618334 -0.07158947067635979
799713.79924582213 21397.179622751548 -0.067432469208840454
799770.73542132508 19151.260105507557 -0.063416690380153865
799817.38111953181 17092.596616378105 -0.059558660938993445
799855.4442921466 15207.505916804632 -0.055842213538394275
799886.37080412998 13483.093183519795 -0.052282644240386957
799911.38117596984 11907.235831619879 -0.048861344777685882
799931.50282108726 10468.562193294665 -0.045592899683869467
799947.59819233348 9156.426503569608 -0.042456844930031129
799960.38925498095 7960.880794108446 -0.039467457586258636
799970.47867504158 6872.6449365156468 -0.036602907283583015
799978.36809945724 5883.0751251488737 -0.033877460363537497
799984.47386797657 4984.1318377346452 -0.031268323298274281
799989.14047672041 4168.3473124452967 -0.028789954296309248
799992.65207613306 3428.7934021399692 -0.026418926381739007
799995.24226380116 2759.0497062840177 -0.024170013174276823
799997.10239946353 2153.1726502680854 -0.022019423784571543
799998.3886477357 1605.6652907316609 -0.019982306762760037
799999.22792612331 1111.448427204461 -0.018034729134625657
799999.72291668772 665.8327287606669 -0.016192223507654452
799999.95627739467 264.49228039498502 -0.014430899736377274
799999.99417252024 -96.56069328523823 -0.012766645251082323
799999.88922457024 -420.99961447012845 -0.011175769494113769
799999.68297642306 -712.20616567220827 -0.0096744572406897815
799999.40793963789 -973.29144082585606 -0.0082393530698614773
799999.0892939372 -1207.115931089101 -0.0068868617367089397
799998.74629356503 -1416.3081318323264 -0.0055940824559828281
799998.39342751121 -1603.282071517616 -0.0043775495072300753
799998.04137412272 -1770.2535319691592 -0.0032149240075839847
799997.69778356224 -1919.255324460772 -0.0021227715946547671
799997.36791750742 -2052.151324833238 -0.001079412923871253
799997.05516952102 -2170.6496940634065 -0.00010134349363221107
799996.7614872806 -2276.3149745437986 0.00083236687316119023
799996.48771294532 -2370.57945478596 0.0017053942200107735
799996.23385678825 -2454.7535426348686 0.0025378368987469834
799995.99931526324 -2530.0354885161869 0.0033136411577910953
799995.78304429271 -2597.5202307374143 0.0040519973685504253
799995.58369526651 -2658.2076800027462 0.0047372157343297657
799995.39972146798 -2713.0102263965691 0.0053875089092278831
799995.22945984756 -2762.759758923914 0.0059876382995231467
799995.07119367528 -2808.2139922630245 0.0065547755648721782
799994.92319911462 -2850.0623927529382 0.0070742128332424992
799994.78377980844 -2888.9314801911387 0.007562024225803844
799994.65129129193 -2925.3897729950468 0.0080041034693440673
799994.52415807662 -2959.9522112000154 0.00841537758666548
799994.40088456159 -2993.0842539343816 0.0087824035221164415
799994.28006180876 -3025.2055117360869 0.0091189189711454715
799994.16037072847 -3056.6931041758207 0.0094121960627691469
799994.04058322648 -3087.8846032579754 0.0096747485034174383
799993.91956149321 -3119.0807361676229 0.0098946057507475153
799993.7962566209 -3150.5477174577914 0.010083030687052633
799993.66970651189 -3182.5193649055163 0.010228842431760773
799993.53903397208 -3215.198889724305 0.010342034157372016
799993.403444845 -3248.7604918109014 0.010412237375863451
799993.26222699578 -3283.3506375340307 0.010448164690629117
799993.11474967329 -3319.0891997712602 0.010440273497197805
799992.96046421502 -3356.0702764640264 0.010395992994342674
799992.79890548426 -3394.3628811907829 0.01030661117748516
799992.62969482178 -3434.0113516720326 0.010178279005981866
799992.45254403236 -3475.0356234065216 0.010003111613378442
799992.26726106997 -3517.4312349617003 0.0097859947430324768
799992.07375688723 -3561.1692118091923 0.0095198597940986326
799991.87205407815 -3606.195697895243 0.0092083479837392346
799991.6622969259 -3652.4314368989876 0.0088451895026959524
799991.4447631666 -3699.7710390262955 0.0084328092124058302
799991.2198772236 -3748.0820897433564 0.0079657129235632205
799990.98822518287 -3797.2040365679541 0.0074451444939622018
799990.75057112635 -3846.9469252673639 0.0068663575074883344
799990.50787509093 -3897.0899083823674 0.006229457081663765
799990.2613121809 -3947.3795952225573 0.0055304130064806438
799990.0122929092 -3997.5281851611999 0.0047682405525986881
799989.76248429471 -4047.211425384311 0.0039395914973404276
799989.51383159298 -4096.0663436570712 0.0030424464424293417
799989.26857990026 -4143.6888150615378 0.0020741032632279987
799989.02929549769 -4189.6308724246601 0.0010315690281841817
799988.79888565105 -4233.3978661618785 -8.7248851931681005e-005
799988.5806165809 -4274.445352122957 -0.0012862501809876626
799988.37812796375 -4312.1758069410889 -0.0025669543465713066
799988.1954430372 -4345.935088424515 -0.0039340962707016579
799988.03697244555 -4375.00868263345 -0.005388657486886197
799987.90750996443 -4398.6177179177093 -0.0069361317382813014
799987.81221779413 -4415.914739562465 -0.0085769964427618844
799987.75659875432 -4425.9792241056011 -0.010317423984277374
799987.74645180954 -4427.8128862088133 -0.012157419447713612
799987.78780763852 -4420.3346751789923 -0.01410375059828225
799987.88683911262 -4402.3755735848981 -0.016155979888275846
799988.04974215094 -4372.6730668330711 -0.018321385214238848
799988.28258023155 -4329.8653940944569 -0.020599114215797087
799988.59108599427 -4272.4854879993845 -0.022996869018522718
799988.98041158717 -4198.9546351952231 -0.025513409052532274
799989.4548184654 -4107.5758366230593 -0.028156775745612549
799990.01729573682 -3996.5268879360501 -0.030925366847275218
799990.66909511236 -3863.8530967615652 -0.033827481198347074
799991.40916785132 -3707.4597278910201 -0.036861183007322246
799992.23348815658 -3525.1040593381481 -0.040034952256328103
799993.1342443442 -3314.3871090661678 -0.043346551563325356
799994.09887718048 -3072.7449757125528 -0.0468045745878269
799995.10894162138 -2797.4398082783096 -0.050406521123996365
799996.13876557397 -2485.5502749724296 -0.054161043523961408
799997.15387459216 -2133.9617027326544 -0.058065428127855458
799998.10914904298 -1739.3556140814185 -0.062128347984446261
799998.94667417614 -1298.1988308063681 -0.066346940452075134
799999.59323962929 -806.73193987223726 -0.070729883608093805
799999.95743833098 -260.95720488305989 -0.075274250944187937
799999.92630881444 343.37426409520498 -0.079988738422039754
799999.36145713564 1010.7760225975748 -0.084870467977477757
799998.09458642418 1746.0406876022066 -0.08992820216779486
799995.92235238175 2554.2551855857441 -0.095159258650864262
799992.60045203078 3440.8170522944552 -0.10057255974250973
799987.8368406177 4411.4518083956036 -0.1061658103166619
799981.28395689605 5472.2315981141001 -0.1119482402587129
799972.52982058551 6629.5951941598987 -0.1179181884075489
799961.08784665389 7890.3695212894072 -0.12408540692832179
799946.38519934367 9261.7928332774372 -0.13044918405992995
799927.74948223645 10751.53980904604 -0.13702009077201927
799904.39353314613 12367.748637039209 -0.1437987653540638
799875.39805648429 14119.050391506205 -0.15079699453931997
799839.69178900938 16014.600801684519 -0.15801727331982698
799796.02884541522 18064.114788070761 -0.16547312517729326
799742.96284350089 20277.90379376015 -0.17316954121739578
799678.81734298496 22666.91626340654 -0.18112245720101797
799601.6520670231 25242.781377091505 -0.18934016751071733
799509.22429411265 28017.856245384242 -0.19784189067931185
799398.94472206174 31005.276602722017 -0.20664024584637591
799267.82700136397 34219.011097209434 -0.21575885422721586
799112.43002979842 37673.918986745448 -0.22521595903648853
798928.79197380901 41385.81103729632 -0.23504102811594535
798712.35485725536 45371.513070623485 -0.24525959424080601
798457.87842457707 49648.931324429461 -0.25590884544193954
798159.34185881028 54237.118317989953 -0.26702376215917001
797809.83182031335 59156.337367737608 -0.27865170892771102
797401.41521058127 64428.122897362395 -0.2908399525807967
796924.99504573492 70075.332830198371 -0.30364930584725752
796370.14795796538 76122.187575686388 -0.3171431320453324
795724.94213444425 82594.288331733056 -0.33140014780423882
794975.73512769106 89518.604535968509 -0.34650506620558158
794106.95202844054 96923.416881415309 -0.36256075679335592
793100.84629739821 104838.19724798096 -0.37968077234918718
791937.24839029962 113293.40056615084 -0.39800121495495699
790593.31178463751 122320.13473351208 -0.41767556059964123
789043.27285069029 131949.66301161514 -0.43888682087485392
787258.25143765053 142212.67715333862 -0.46184534783478831
785206.13470021519 153138.25788780145 -0.48680220732820373
782851.61024061742 164752.40921882805 -0.51405094004577745
780156.44978870137 177076.0115114233 -0.5439432522134946
777080.19718385721 190121.9796456075 -0.57689550211493812
773581.49295003503 203891.32832177696 -0.61340671615243059
769620.38539927406 218367.72283798075 -0.65406748862993003
765162.15541597048 233509.90539738743 -0.69957311386765042
760183.45130080811 249241.08884336965 -0.75071671178032651
754681.94888005441 265433.90144054568 -0.8083560642646952
748691.45294317405 281888.46781852632 -0.87329779930412454
742305.83372069942 298298.59071628604 -0.94600307328112676
735720.22464650252 314190.62851244851 -1.0258254520728114
729325.61267720303 328761.5407735412 -1.1088993981712778
724089.43786789663 340138.9215699351 -1.1810133111750678
590447.55956453609 539788.55064205662 -0.17732162114146721
601878.20815158496 527012.92446410446 -0.17197466609324694
616229.1090107772 510158.49028292706 -0.16766361287397327
631099.13674917282 491644.05782478611 -0.16514452939206695
645616.85550760303 472418.11553373741 -0.16422348063667577
659436.71319725167 452927.39074555744 -0.16453839069810169
672422.53432577418 433414.27679631818 -0.1657414047952066
684531.03777737345 414025.67350274778 -0.16753247993862155
695763.42251250357 394858.53149407648 -0.16966956885075946
706143.05945312267 375981.35537038808 -0.17195321844690908
715704.36951845733 357445.4580102496 -0.17422800636513044
724486.98785542999 339291.32678000315 -0.17636369181675127
732532.62932623946 321552.40159630944 -0.17826196738839889
739883.41155270603 304257.3537469501 -0.17983775054595094
746580.98739065253 287431.43402690935 -0.18103176508782828
752666.12703812483 271097.21726605063 -0.18179081430756863
758178.54123073432 255274.94905924989 -0.18208523885828065
763156.82207021839 239982.6346377008 -0.18188674415754605
767638.42902104883 225235.97024024226 -0.18119005487473597
771659.67945465038 211048.19142535666 -0.17998726256493397
775255.7237085934 197429.89352434309 -0.17829347398063883
778460.49778771331 184388.86458806167 -0.17611703059102363
781306.65519259125 171929.9582729415 -0.17348930548836616
783825.4839085174 160055.02421214274 -0.17043041571864434
786046.81692812638 148762.90396847157 -0.16698352587059628
787998.94486644585 138049.49434656234 -0.16317581415957386
789708.5385368868 127907.87372913747 -0.15905771584920639
791200.58763814182 118328.48398012626 -0.1546589527892413
792498.35992917663 109299.35731532205 -0.15003312979675054
793623.38318134868 100806.37711855935 -0.14520863733397518
794595.45053125732 92833.560714908032 -0.1402389417620227
795432.64823145338 85363.353539318588 -0.13514815562453017
796151.40376325604 78376.924447057521 -0.12998727255499118
796766.55138518498 71854.4542373242 -0.12477419407415143
797291.41185420821 65775.410173626864 -0.11955607143370761
797737.88280134962 60118.801914268872 -0.114343596131723
798116.53643049893 54863.414733062462 -0.10917953007401764
798436.72135843965 49988.018428163232 -0.10406711025752034
798706.6658752904 45471.550296500798 -0.099044780241951236
798933.58022956003 41293.272836723889 -0.094108618067529529
799123.75608044269 37432.906217353564 -0.089293223790831322
799282.66160558513 33870.737468863685 -0.084588150569564965
799415.0312252146 30587.707517610892 -0.080024846402757435
799524.94919913402 27565.478557723909 -0.075587146477397296
799615.92670892749 24786.48328057021 -0.071304111409828577
799690.97223932156 22233.958687645274 -0.067154717356804727
799752.65532235673 19891.965836380456 -0.063166376884761469
799803.16380989144 17745.398267839311 -0.059314039266798096
799844.35500003665 15779.98018288013 -0.055624123678693918
799877.80097644345 13982.256795193556 -0.052068313700937015
799904.8286038111 12339.577638857256 -0.048672575460187821
799926.55461294297 10840.074956578457 -0.045405997748688219
799943.91624477634 9472.6375930124141 -0.042294511340714533
799957.6978879323 8226.8821456349215 -0.039305187794312177
799968.55414819904 7093.1216004347307 -0.036464222282910401
799977.02974545688 6062.3328542116142 -0.033737160133540008
799983.57662030321 5126.1230756340256 -0.031150654679682435
799988.56858707918 4276.6961541721766 -0.028669140894001976
799992.31385121576 3506.8189256214873 -0.026319833373902968
799995.06566602248 2809.7882510749209 -0.024066410319886336
799997.03138336609 2179.3984952590295 -0.021936676014582594
799998.38011626853 1609.9103533689013 -0.019893855611246986
799999.24921165255 1096.0204341451713 -0.017966311894211807
799999.74970188423 632.83245980223228 -0.016117081800995671
799999.97088603419 215.82943305901978 -0.014375009357057902
799999.98416905326 -159.15248823094032 -0.012703178211053684
799999.84627156891 -495.94905592916081 -0.011130801989999661
799999.60190634476 -798.09127907092079 -0.0096212231104226692
799999.2860042369 -1068.8277275353287 -0.0082038887124952012
799998.92556075554 -1311.1451623968005 -0.0068425942854932901
799998.54116322787 -1527.7881748357861 -0.0055668682034700082
799998.14825071546 -1721.2772658906954 -0.0043411392493693194
799997.75814954541 -1893.9260021210341 -0.0031948552772881837
799997.37892248516 -2047.8567219092788 -0.0020932468519647869
799997.0160616535 -2185.0154348824281 -0.0010655156681843893
799996.67305281921 -2307.1853893153525 -7.7852138197225337e-005
799996.35183191358 -2415.9999232502655 0.00084095318181635643
799996.05315374851 -2512.9541231224371 0.0017236018187809061
799995.77688711253 -2599.4158545744672 0.0025418750004595507
799995.52225069888 -2676.6357300926179 0.0033272277759539884
799995.28799929877 -2745.7565294445812 0.0040521664599617426
799995.0725707314 -2807.8216734649473 0.0047467713785924364
799994.87419954501 -2863.7832414399472 0.0053844174446156506
799994.69100520562 -2914.5091328484191 0.0059936927017221059
799994.52105843264 -2960.7898420864876 0.0065489725368536511
799994.36243131163 -3003.3444889380248 0.0070772464806686686
799994.21323335147 -3042.8265069022491 0.0075540091037123325
799994.07163761114 -3079.8286765132284 0.0080045571714383121